
:LABEL1: Calculations in /home/ondracka/TiN-test/TiN-corehole
:LABEL2: on rosat at Tue Aug 20 09:32:12 AM CEST 2024
:LABEL3: using WIEN2k_21.1 (Release 14/4/2021) in /home/ondracka/software/WIEN2k_21.1

:LABEL4: using the command: run_lapw -ec 0.0001

 Euler-Maclaurian Coulomb
 Consistent 3/8+Simpson combinations at start/end
 New Mode for Coulomb Integral
 Extension of core to zero
 LDM version in phi
 Fifth-order quadrature in outwin
 Lebedev-Laikov Grid in lapw0


            ---------
:ITE009:  9. ITERATION
            ---------

:NATO :    8 INDEPENDENT AND    8 TOTAL ATOMS IN UNITCELL
       SUBSTANCE: blebleble                                                   

       LATTICE                      = P   
:POT  : POTENTIAL OPTION EX_PBE EC_PBE VX_PBE VC_PBE
:LAT  : LATTICE CONSTANTS=  8.01479  8.01479  8.01479    1.571    1.571    1.571
:VOL  : UNIT CELL VOLUME =     514.84590
       MODE OF CALCULATION IS       = RELA
       NON-SPINPOLARIZED CALCULATION
:IFFT  : FFT-parameters:   64   64   64 Factor: 2.00


   CONVERGENCE PARAMETER FOR PSEUDOCHARGE: NCON=  9
   MAXIMAL VALUE OF RMT(JATOM)*ABSK(NKK) : RK  =25.66310


:VKCOUL :  VK-COUL convergence: 0.353E-14
 Lebedev grid of          350
 Lebedev grid of          350
 Lebedev grid of          350
 Lebedev grid of          350
 Lebedev grid of          350
 Lebedev grid of          350
 Lebedev grid of          350
 Lebedev grid of          350
:VCOUL001 ATOMNUMBER=  1 Ti1     VCOUL-ZERO =  0.44885E+00
:EFG001:                        EFG         =    -0.00487   *10**21  V / m**2
                               V20  TOT/SRF=    -0.00422     0.00004
                               V22  TOT/SRF=    -0.00000     0.00000
                               V22M TOT/SRF=     0.00000     0.00000
                               V21  TOT/SRF=     0.00000     0.00000
                               V21M TOT/SRF=     0.00000     0.00000

              0.00243    0.00000    0.00000        0.00243    0.00000    0.00000
              0.00000    0.00243    0.00000        0.00000    0.00243    0.00000
              0.00000    0.00000   -0.00487        0.00000    0.00000   -0.00487

         MAIN DIRECTIONS OF THE EFG   1.0000  0.0000 -0.0000
                                      0.0000  1.0000 -0.0000
                                      0.0000  0.0000  1.0000
:ANG001:  ANGLE WITH OLD X-AXIS =         0.0

:ETA001:                         ASYMM. ETA =     0.00019


:VCOUL002 ATOMNUMBER=  2 Ti2     VCOUL-ZERO =  0.44885E+00
:EFG002:                        EFG         =    -0.00487   *10**21  V / m**2
                               V20  TOT/SRF=    -0.00422     0.00004
                               V22  TOT/SRF=    -0.00000    -0.00000
                               V22M TOT/SRF=     0.00000     0.00000
                               V21  TOT/SRF=     0.00000     0.00000
                               V21M TOT/SRF=     0.00000     0.00000

              0.00243    0.00000    0.00000        0.00243    0.00000    0.00000
              0.00000    0.00243    0.00000        0.00000    0.00243    0.00000
              0.00000    0.00000   -0.00487        0.00000    0.00000   -0.00487

         MAIN DIRECTIONS OF THE EFG   1.0000  0.0000 -0.0000
                                      0.0000  1.0000 -0.0000
                                      0.0000  0.0000  1.0000
:ANG002:  ANGLE WITH OLD X-AXIS =         0.0

:ETA002:                         ASYMM. ETA =     0.00011


:VCOUL003 ATOMNUMBER=  3 Ti3     VCOUL-ZERO =  0.44885E+00
:EFG003:                        EFG         =    -0.00487   *10**21  V / m**2
                               V20  TOT/SRF=    -0.00422     0.00004
                               V22  TOT/SRF=    -0.00000     0.00000
                               V22M TOT/SRF=     0.00000     0.00000
                               V21  TOT/SRF=     0.00000     0.00000
                               V21M TOT/SRF=     0.00000     0.00000

              0.00243    0.00000    0.00000        0.00243    0.00000    0.00000
              0.00000    0.00243    0.00000        0.00000    0.00243    0.00000
              0.00000    0.00000   -0.00487        0.00000    0.00000   -0.00487

         MAIN DIRECTIONS OF THE EFG   1.0000  0.0000 -0.0000
                                      0.0000  1.0000 -0.0000
                                      0.0000  0.0000  1.0000
:ANG003:  ANGLE WITH OLD X-AXIS =         0.0

:ETA003:                         ASYMM. ETA =     0.00018


:VCOUL004 ATOMNUMBER=  4 Ti4     VCOUL-ZERO =  0.44885E+00
:EFG004:                        EFG         =    -0.00487   *10**21  V / m**2
                               V20  TOT/SRF=    -0.00422     0.00004
                               V22  TOT/SRF=    -0.00000    -0.00000
                               V22M TOT/SRF=     0.00000     0.00000
                               V21  TOT/SRF=     0.00000     0.00000
                               V21M TOT/SRF=     0.00000     0.00000

              0.00243    0.00000    0.00000        0.00243    0.00000    0.00000
              0.00000    0.00243    0.00000        0.00000    0.00243    0.00000
              0.00000    0.00000   -0.00487        0.00000    0.00000   -0.00487

         MAIN DIRECTIONS OF THE EFG   1.0000  0.0000 -0.0000
                                      0.0000  1.0000 -0.0000
                                      0.0000  0.0000  1.0000
:ANG004:  ANGLE WITH OLD X-AXIS =         0.0

:ETA004:                         ASYMM. ETA =     0.00010


:VCOUL005 ATOMNUMBER=  5 N 5     VCOUL-ZERO =  0.65771E+00
:EFG005:                        EFG         =     0.00014   *10**21  V / m**2
                               V20  TOT/SRF=     0.00012     0.00005
                               V22  TOT/SRF=     0.00000    -0.00000
                               V22M TOT/SRF=     0.00000     0.00000
                               V21  TOT/SRF=     0.00000     0.00000
                               V21M TOT/SRF=     0.00000     0.00000

             -0.00007    0.00000    0.00000       -0.00007    0.00000    0.00000
              0.00000   -0.00007    0.00000        0.00000   -0.00007    0.00000
              0.00000    0.00000    0.00014        0.00000    0.00000    0.00014

         MAIN DIRECTIONS OF THE EFG   1.0000 -0.0000  0.0000
                                      0.0000  1.0000  0.0000
                                      0.0000  0.0000  1.0000
:ANG005:  ANGLE WITH OLD X-AXIS =         0.0

:ETA005:                         ASYMM. ETA =     0.00119


:VCOUL006 ATOMNUMBER=  6 N 6     VCOUL-ZERO =  0.65771E+00
:EFG006:                        EFG         =     0.00014   *10**21  V / m**2
                               V20  TOT/SRF=     0.00012     0.00005
                               V22  TOT/SRF=     0.00000     0.00000
                               V22M TOT/SRF=     0.00000     0.00000
                               V21  TOT/SRF=     0.00000     0.00000
                               V21M TOT/SRF=     0.00000     0.00000

             -0.00007    0.00000    0.00000       -0.00007    0.00000    0.00000
              0.00000   -0.00007    0.00000        0.00000   -0.00007    0.00000
              0.00000    0.00000    0.00014        0.00000    0.00000    0.00014

         MAIN DIRECTIONS OF THE EFG   1.0000 -0.0000  0.0000
                                      0.0000  1.0000  0.0000
                                      0.0000  0.0000  1.0000
:ANG006:  ANGLE WITH OLD X-AXIS =         0.0

:ETA006:                         ASYMM. ETA =     0.00125


:VCOUL007 ATOMNUMBER=  7 N 7     VCOUL-ZERO =  0.65771E+00
:EFG007:                        EFG         =     0.00014   *10**21  V / m**2
                               V20  TOT/SRF=     0.00012     0.00005
                               V22  TOT/SRF=     0.00000    -0.00000
                               V22M TOT/SRF=     0.00000     0.00000
                               V21  TOT/SRF=     0.00000     0.00000
                               V21M TOT/SRF=     0.00000     0.00000

             -0.00007    0.00000    0.00000       -0.00007    0.00000    0.00000
              0.00000   -0.00007    0.00000        0.00000   -0.00007    0.00000
              0.00000    0.00000    0.00014        0.00000    0.00000    0.00014

         MAIN DIRECTIONS OF THE EFG   1.0000 -0.0000  0.0000
                                      0.0000  1.0000  0.0000
                                      0.0000  0.0000  1.0000
:ANG007:  ANGLE WITH OLD X-AXIS =         0.0

:ETA007:                         ASYMM. ETA =     0.00118


:VCOUL008 ATOMNUMBER=  8 N 8     VCOUL-ZERO =  0.65771E+00
:EFG008:                        EFG         =     0.00014   *10**21  V / m**2
                               V20  TOT/SRF=     0.00012     0.00005
                               V22  TOT/SRF=     0.00000     0.00000
                               V22M TOT/SRF=     0.00000     0.00000
                               V21  TOT/SRF=     0.00000     0.00000
                               V21M TOT/SRF=     0.00000     0.00000

             -0.00007    0.00000    0.00000       -0.00007    0.00000    0.00000
              0.00000   -0.00007    0.00000        0.00000   -0.00007    0.00000
              0.00000    0.00000    0.00014        0.00000    0.00000    0.00014

         MAIN DIRECTIONS OF THE EFG   1.0000 -0.0000  0.0000
                                      0.0000  1.0000  0.0000
                                      0.0000  0.0000  1.0000
:ANG008:  ANGLE WITH OLD X-AXIS =         0.0

:ETA008:                         ASYMM. ETA =     0.00124


:FIT001: LUSE= 13 SIGMA OF V-XC FIT FOR ATOM  1  0.1890550E-01
:FIT001: LUSE= 13 SIGMA OF V-XC FIT FOR ATOM  1  0.1890550E-01
:FIT002: LUSE= 13 SIGMA OF V-XC FIT FOR ATOM  2  0.1890550E-01
:FIT002: LUSE= 13 SIGMA OF V-XC FIT FOR ATOM  2  0.1890550E-01
:FIT003: LUSE= 13 SIGMA OF V-XC FIT FOR ATOM  3  0.1890550E-01
:FIT003: LUSE= 13 SIGMA OF V-XC FIT FOR ATOM  3  0.1890550E-01
:FIT004: LUSE= 13 SIGMA OF V-XC FIT FOR ATOM  4  0.1890550E-01
:FIT004: LUSE= 13 SIGMA OF V-XC FIT FOR ATOM  4  0.1890550E-01
:FIT005: LUSE= 13 SIGMA OF V-XC FIT FOR ATOM  5  0.8689740E-03
:FIT005: LUSE= 13 SIGMA OF V-XC FIT FOR ATOM  5  0.8689740E-03
:FIT006: LUSE= 13 SIGMA OF V-XC FIT FOR ATOM  6  0.8689740E-03
:FIT006: LUSE= 13 SIGMA OF V-XC FIT FOR ATOM  6  0.8689740E-03
:FIT007: LUSE= 13 SIGMA OF V-XC FIT FOR ATOM  7  0.8689740E-03
:FIT007: LUSE= 13 SIGMA OF V-XC FIT FOR ATOM  7  0.8689740E-03
:FIT008: LUSE= 13 SIGMA OF V-XC FIT FOR ATOM  8  0.8689740E-03
:FIT008: LUSE= 13 SIGMA OF V-XC FIT FOR ATOM  8  0.8689740E-03
:DEN  : DENSITY INTEGRAL  =         -3085.86994272   (Ry)
       ELS_POTENTIAL_AT Z=0 and Z=0.5:  -0.97745  -0.97745
       ELS_POTENTIAL_AT Y=0 and Y=0.5:  -0.97746  -0.97746
:VZERO:v0,v0c,v0x  -2.00567  -0.97745  -1.02821 v5,v5c,v5x  -2.00567  -0.97745  -1.02821
:VZERY:v0,v0c,v0x  -2.00567  -0.97746  -1.02821 v5,v5c,v5x  -2.00567  -0.97746  -1.02821
:VZERX:v0,v0c,v0x  -2.00567  -0.97746  -1.02821 v5,v5c,v5x  -2.00567  -0.97746  -1.02821
:LMAX-WF:   10   Non-Spherical LMAX:   4

          ATOMIC SPHERE DEPENDENT PARAMETERS FOR ATOM  Ti1       
:e__0001: OVERALL ENERGY PARAMETER IS    0.6543
          OVERALL BASIS SET ON ATOM IS LAPW
:E0_0001: E( 0)=    0.6543
             APW+lo
:E0_0001: E( 0)=   -3.4326   E(BOTTOM)=   -3.618   E(TOP)=   -3.247  2  3   188
             LOCAL ORBITAL
:E1_0001: E( 1)=    0.6543
             APW+lo
:E1_0001: E( 1)=   -1.7030   E(BOTTOM)=   -2.012   E(TOP)=   -1.394  1  2   187
             LOCAL ORBITAL
:E2_0001: E( 2)=    0.9323   E(BOTTOM)=    0.358   E(TOP)=    1.507  0  1   157
             APW+lo

          ATOMIC SPHERE DEPENDENT PARAMETERS FOR ATOM  Ti2       
:e__0002: OVERALL ENERGY PARAMETER IS    0.6543
          OVERALL BASIS SET ON ATOM IS LAPW
:E0_0002: E( 0)=    0.6543
             APW+lo
:E0_0002: E( 0)=   -3.4326   E(BOTTOM)=   -3.618   E(TOP)=   -3.247  2  3   188
             LOCAL ORBITAL
:E1_0002: E( 1)=    0.6543
             APW+lo
:E1_0002: E( 1)=   -1.7030   E(BOTTOM)=   -2.012   E(TOP)=   -1.394  1  2   183
             LOCAL ORBITAL
:E2_0002: E( 2)=    0.9323   E(BOTTOM)=    0.358   E(TOP)=    1.507  0  1   160
             APW+lo

          ATOMIC SPHERE DEPENDENT PARAMETERS FOR ATOM  Ti3       
:e__0003: OVERALL ENERGY PARAMETER IS    0.6543
          OVERALL BASIS SET ON ATOM IS LAPW
:E0_0003: E( 0)=    0.6543
             APW+lo
:E0_0003: E( 0)=   -3.4326   E(BOTTOM)=   -3.618   E(TOP)=   -3.247  2  3   187
             LOCAL ORBITAL
:E1_0003: E( 1)=    0.6543
             APW+lo
:E1_0003: E( 1)=   -1.7030   E(BOTTOM)=   -2.012   E(TOP)=   -1.394  1  2   185
             LOCAL ORBITAL
:E2_0003: E( 2)=    0.9323   E(BOTTOM)=    0.358   E(TOP)=    1.507  0  1   159
             APW+lo

          ATOMIC SPHERE DEPENDENT PARAMETERS FOR ATOM  Ti4       
:e__0004: OVERALL ENERGY PARAMETER IS    0.6543
          OVERALL BASIS SET ON ATOM IS LAPW
:E0_0004: E( 0)=    0.6543
             APW+lo
:E0_0004: E( 0)=   -3.4326   E(BOTTOM)=   -3.618   E(TOP)=   -3.247  2  3   189
             LOCAL ORBITAL
:E1_0004: E( 1)=    0.6543
             APW+lo
:E1_0004: E( 1)=   -1.7030   E(BOTTOM)=   -2.012   E(TOP)=   -1.394  1  2   185
             LOCAL ORBITAL
:E2_0004: E( 2)=    0.9323   E(BOTTOM)=    0.358   E(TOP)=    1.507  0  1   156
             APW+lo

          ATOMIC SPHERE DEPENDENT PARAMETERS FOR ATOM  N 5       
:e__0005: OVERALL ENERGY PARAMETER IS    0.6543
          OVERALL BASIS SET ON ATOM IS LAPW
:E0_0005: E( 0)=    1.0543
             APW+lo
:E0_0005: E( 0)=   -0.1396   E(BOTTOM)=   -1.227   E(TOP)=    0.947  1  2   210
             LOCAL ORBITAL
:E1_0005: E( 1)=    0.6543
             APW+lo

          ATOMIC SPHERE DEPENDENT PARAMETERS FOR ATOM  N 6       
:e__0006: OVERALL ENERGY PARAMETER IS    0.6543
          OVERALL BASIS SET ON ATOM IS LAPW
:E0_0006: E( 0)=    1.0543
             APW+lo
:E0_0006: E( 0)=   -0.1396   E(BOTTOM)=   -1.227   E(TOP)=    0.947  1  2   208
             LOCAL ORBITAL
:E1_0006: E( 1)=    0.6543
             APW+lo

          ATOMIC SPHERE DEPENDENT PARAMETERS FOR ATOM  N 7       
:e__0007: OVERALL ENERGY PARAMETER IS    0.6543
          OVERALL BASIS SET ON ATOM IS LAPW
:E0_0007: E( 0)=    1.0543
             APW+lo
:E0_0007: E( 0)=   -0.1396   E(BOTTOM)=   -1.227   E(TOP)=    0.947  1  2   210
             LOCAL ORBITAL
:E1_0007: E( 1)=    0.6543
             APW+lo

          ATOMIC SPHERE DEPENDENT PARAMETERS FOR ATOM  N 8       
:e__0008: OVERALL ENERGY PARAMETER IS    0.6543
          OVERALL BASIS SET ON ATOM IS LAPW
:E0_0008: E( 0)=    1.0543
             APW+lo
:E0_0008: E( 0)=   -0.1396   E(BOTTOM)=   -1.227   E(TOP)=    0.947  1  2   209
             LOCAL ORBITAL
:E1_0008: E( 1)=    0.6543
             APW+lo

       K=  0.000000  0.000000  0.000000            1
:RKM  : MATRIX SIZE   533LOs:  72  RKM= 6.77  WEIGHT= 1.00  PGR:    
       EIGENVALUES ARE:
:EIG00001:      -3.4025732   -3.3930891   -3.3930889   -3.3930888   -1.6762581
:EIG00006:      -1.6762566   -1.6762566   -1.6523006   -1.6523006   -1.6522987
:EIG00011:      -1.6522987   -1.6522986   -1.6522985   -1.6373171   -1.6373146
:EIG00016:      -1.6373146   -0.4091652   -0.3038271   -0.3038271   -0.3038259
:EIG00021:       0.4203610    0.4203610    0.4203706    0.6111780    0.6111780
:EIG00026:       0.6111786    0.6111786    0.6111957    0.6111957    0.6241406
:EIG00031:       0.6241406    0.6241436    0.6985463    0.6985463    0.6985680
:EIG00036:       0.8045184    0.8045184    0.8045216    0.8929381    0.8929586
:EIG00041:       0.9707461    0.9707608    0.9707608    1.0252231    1.0252232
:EIG00046:       1.0252233    1.0252233    1.0252253    1.0252254    1.1149904

:EIG00051:       1.1149904    1.1149980    1.2477467    1.6311028    1.6311028
:EIG00056:       1.6311214    1.7178311    1.7178311    1.7178358    1.8204978
:EIG00061:       1.9149473    1.9149473    1.9149489    2.2521887    2.2521887
:EIG00066:       2.2521897    2.2521897    2.2521922    2.2521922    2.3174618
:EIG00071:       2.3174618    2.3174657
       ********************************************************

:KPT   :      NUMBER OF K-POINTS:   216


       TEMP.-SMEARING WITH    0.00190 Ry 
          -S / Kb           =  -0.34104698
          -(T*S)            =  -0.00064799
          Chem Pot          =   0.86951218
         Bandranges (emin - emax) and occupancy:
:BAN00028:  28    0.446465    0.611196  2.00000000
:BAN00029:  29    0.446487    0.611196  2.00000000
:BAN00030:  30    0.446487    0.642980  2.00000000
:BAN00031:  31    0.446487    0.657458  2.00000000
:BAN00032:  32    0.446487    0.674688  2.00000000
:BAN00033:  33    0.654945    0.973709  1.49625555
:BAN00034:  34    0.676200    0.973709  1.42767909
:BAN00035:  35    0.685070    0.973709  0.94035578
:BAN00036:  36    0.782759    0.973709  0.72821657
:BAN00037:  37    0.804518    0.973712  0.24846796
:BAN00038:  38    0.804522    0.977980  0.15902501
:BAN00039:  39    0.892938    1.003849  0.00000003
:BAN00040:  40    0.892959    1.004018  0.00000001
:BAN00041:  41    0.962272    1.022609  0.00000000
:BAN00042:  42    0.962272    1.022629  0.00000000
:BAN00043:  43    0.970761    1.022629  0.00000000
        Energy to separate low and high energystates:    0.20518


:NOE  : NUMBER OF ELECTRONS          =   69.000

:FER  : F E R M I - ENERGY(FERMI-SM.)=   0.8695121792
:GMA  : POTENTIAL AND CHARGE CUT-OFF  12.00 Ry**.5

:POS001: ATOM   -1 X,Y,Z = 0.00000 0.00000 0.00000  MULT= 1  ZZ= 22.000  Ti1       

       LMMAX 10
       LM=   0 0  2 0  2 2  4 0  4 2  4 4  6 0  6 2  6 4  6 6

:CHA001: TOTAL VALENCE CHARGE INSIDE SPHERE   1 =  10.0856    (RMT=  2.1400 )
:PCS001: PARTIAL CHARGES SPHERE =  1 S,P,D,F,PX,PY,PZ,D-Z2,D-X2Y2,D-XY,D-XZ,D-YZ 
:QTL001: 2.1119 6.0568 1.8673 0.0417 2.0189 2.0189 2.0189 0.3485 0.3485 0.3901 0.3901 0.3901
        Q-s-low E-s-low   Q-p-low E-p-low   Q-d-low E-d-low   Q-f-low E-f-low
:EPL001:  2.0123 -3.3421    5.8636 -1.6390    0.0663 -0.2832    0.0060 -0.2973
        Q-s-hi  E-s-hi    Q-p-hi  E-p-hi    Q-d-hi  E-d-hi    Q-f-hi  E-f-hi 
:EPH001:  0.0996  0.3805    0.1932  0.4675    1.8010  0.6111    0.0357  0.5778

                      VXX         VYY         VZZ       UP TO R
:VZZ001:             0.00242     0.00242    -0.00484       2.140

:POS002: ATOM   -2 X,Y,Z = 0.00000 0.50000 0.50000  MULT= 1  ZZ= 22.000  Ti2       

       LMMAX 10
       LM=   0 0  2 0  2 2  4 0  4 2  4 4  6 0  6 2  6 4  6 6

:CHA002: TOTAL VALENCE CHARGE INSIDE SPHERE   2 =  10.0856    (RMT=  2.1400 )
:PCS002: PARTIAL CHARGES SPHERE =  2 S,P,D,F,PX,PY,PZ,D-Z2,D-X2Y2,D-XY,D-XZ,D-YZ 
:QTL002: 2.1119 6.0568 1.8673 0.0417 2.0189 2.0189 2.0189 0.3485 0.3485 0.3901 0.3901 0.3901
        Q-s-low E-s-low   Q-p-low E-p-low   Q-d-low E-d-low   Q-f-low E-f-low
:EPL002:  2.0123 -3.3421    5.8636 -1.6390    0.0663 -0.2832    0.0060 -0.2973
        Q-s-hi  E-s-hi    Q-p-hi  E-p-hi    Q-d-hi  E-d-hi    Q-f-hi  E-f-hi 
:EPH002:  0.0996  0.3805    0.1932  0.4675    1.8010  0.6111    0.0357  0.5778

                      VXX         VYY         VZZ       UP TO R
:VZZ002:             0.00242     0.00242    -0.00485       2.140

:POS003: ATOM   -3 X,Y,Z = 0.50000 0.00000 0.50000  MULT= 1  ZZ= 22.000  Ti3       

       LMMAX 10
       LM=   0 0  2 0  2 2  4 0  4 2  4 4  6 0  6 2  6 4  6 6

:CHA003: TOTAL VALENCE CHARGE INSIDE SPHERE   3 =  10.0856    (RMT=  2.1400 )
:PCS003: PARTIAL CHARGES SPHERE =  3 S,P,D,F,PX,PY,PZ,D-Z2,D-X2Y2,D-XY,D-XZ,D-YZ 
:QTL003: 2.1119 6.0568 1.8673 0.0417 2.0189 2.0189 2.0189 0.3485 0.3485 0.3901 0.3901 0.3901
        Q-s-low E-s-low   Q-p-low E-p-low   Q-d-low E-d-low   Q-f-low E-f-low
:EPL003:  2.0123 -3.3421    5.8636 -1.6390    0.0663 -0.2832    0.0060 -0.2973
        Q-s-hi  E-s-hi    Q-p-hi  E-p-hi    Q-d-hi  E-d-hi    Q-f-hi  E-f-hi 
:EPH003:  0.0996  0.3805    0.1932  0.4675    1.8010  0.6111    0.0357  0.5778

                      VXX         VYY         VZZ       UP TO R
:VZZ003:             0.00242     0.00242    -0.00484       2.140

:POS004: ATOM   -4 X,Y,Z = 0.50000 0.50000 0.00000  MULT= 1  ZZ= 22.000  Ti4       

       LMMAX 10
       LM=   0 0  2 0  2 2  4 0  4 2  4 4  6 0  6 2  6 4  6 6

:CHA004: TOTAL VALENCE CHARGE INSIDE SPHERE   4 =  10.0856    (RMT=  2.1400 )
:PCS004: PARTIAL CHARGES SPHERE =  4 S,P,D,F,PX,PY,PZ,D-Z2,D-X2Y2,D-XY,D-XZ,D-YZ 
:QTL004: 2.1119 6.0568 1.8673 0.0417 2.0189 2.0189 2.0189 0.3485 0.3485 0.3901 0.3901 0.3901
        Q-s-low E-s-low   Q-p-low E-p-low   Q-d-low E-d-low   Q-f-low E-f-low
:EPL004:  2.0123 -3.3421    5.8636 -1.6390    0.0663 -0.2832    0.0060 -0.2973
        Q-s-hi  E-s-hi    Q-p-hi  E-p-hi    Q-d-hi  E-d-hi    Q-f-hi  E-f-hi 
:EPH004:  0.0996  0.3805    0.1932  0.4675    1.8010  0.6111    0.0357  0.5778

                      VXX         VYY         VZZ       UP TO R
:VZZ004:             0.00242     0.00242    -0.00484       2.140

:POS005: ATOM   -5 X,Y,Z = 0.00000 0.50000 0.00000  MULT= 1  ZZ=  7.000  N 5       

       LMMAX 10
       LM=   0 0  2 0  2 2  4 0  4 2  4 4  6 0  6 2  6 4  6 6

:CHA005: TOTAL VALENCE CHARGE INSIDE SPHERE   5 =   4.8127    (RMT=  1.8400 )
:PCS005: PARTIAL CHARGES SPHERE =  5 S,P,D,F,PX,PY,PZ,D-Z2,D-X2Y2,D-XY,D-XZ,D-YZ 
:QTL005: 1.5261 3.2269 0.0503 0.0072 1.0756 1.0756 1.0756 0.0053 0.0053 0.0132 0.0132 0.0132
        Q-s-low E-s-low   Q-p-low E-p-low   Q-d-low E-d-low   Q-f-low E-f-low
:EPL005:  1.4982 -0.2992    0.0222 -1.5326    0.0071 -1.7557    0.0026 -1.7850
        Q-s-hi  E-s-hi    Q-p-hi  E-p-hi    Q-d-hi  E-d-hi    Q-f-hi  E-f-hi 
:EPH005:  0.0279  0.4622    3.2047  0.4849    0.0432  0.6801    0.0046  0.5991

                      VXX         VYY         VZZ       UP TO R
:VZZ005:            -0.00005    -0.00005     0.00011       1.840

:POS006: ATOM   -6 X,Y,Z = 0.00000 0.00000 0.50000  MULT= 1  ZZ=  7.000  N 6       

       LMMAX 10
       LM=   0 0  2 0  2 2  4 0  4 2  4 4  6 0  6 2  6 4  6 6

:CHA006: TOTAL VALENCE CHARGE INSIDE SPHERE   6 =   4.8127    (RMT=  1.8400 )
:PCS006: PARTIAL CHARGES SPHERE =  6 S,P,D,F,PX,PY,PZ,D-Z2,D-X2Y2,D-XY,D-XZ,D-YZ 
:QTL006: 1.5261 3.2269 0.0503 0.0072 1.0756 1.0756 1.0756 0.0053 0.0053 0.0132 0.0132 0.0132
        Q-s-low E-s-low   Q-p-low E-p-low   Q-d-low E-d-low   Q-f-low E-f-low
:EPL006:  1.4982 -0.2992    0.0222 -1.5326    0.0071 -1.7557    0.0026 -1.7850
        Q-s-hi  E-s-hi    Q-p-hi  E-p-hi    Q-d-hi  E-d-hi    Q-f-hi  E-f-hi 
:EPH006:  0.0279  0.4622    3.2047  0.4849    0.0432  0.6801    0.0046  0.5991

                      VXX         VYY         VZZ       UP TO R
:VZZ006:            -0.00005    -0.00005     0.00011       1.840

:POS007: ATOM   -7 X,Y,Z = 0.50000 0.50000 0.50000  MULT= 1  ZZ=  7.000  N 7       

       LMMAX 10
       LM=   0 0  2 0  2 2  4 0  4 2  4 4  6 0  6 2  6 4  6 6

:CHA007: TOTAL VALENCE CHARGE INSIDE SPHERE   7 =   4.8127    (RMT=  1.8400 )
:PCS007: PARTIAL CHARGES SPHERE =  7 S,P,D,F,PX,PY,PZ,D-Z2,D-X2Y2,D-XY,D-XZ,D-YZ 
:QTL007: 1.5261 3.2269 0.0503 0.0072 1.0756 1.0756 1.0756 0.0053 0.0053 0.0132 0.0132 0.0132
        Q-s-low E-s-low   Q-p-low E-p-low   Q-d-low E-d-low   Q-f-low E-f-low
:EPL007:  1.4982 -0.2992    0.0222 -1.5326    0.0071 -1.7557    0.0026 -1.7850
        Q-s-hi  E-s-hi    Q-p-hi  E-p-hi    Q-d-hi  E-d-hi    Q-f-hi  E-f-hi 
:EPH007:  0.0279  0.4622    3.2047  0.4849    0.0432  0.6801    0.0046  0.5991

                      VXX         VYY         VZZ       UP TO R
:VZZ007:            -0.00005    -0.00005     0.00011       1.840

:POS008: ATOM   -8 X,Y,Z = 0.50000 0.00000 0.00000  MULT= 1  ZZ=  7.000  N 8       

       LMMAX 10
       LM=   0 0  2 0  2 2  4 0  4 2  4 4  6 0  6 2  6 4  6 6

:CHA008: TOTAL VALENCE CHARGE INSIDE SPHERE   8 =   4.8127    (RMT=  1.8400 )
:PCS008: PARTIAL CHARGES SPHERE =  8 S,P,D,F,PX,PY,PZ,D-Z2,D-X2Y2,D-XY,D-XZ,D-YZ 
:QTL008: 1.5261 3.2269 0.0503 0.0072 1.0756 1.0756 1.0756 0.0053 0.0053 0.0132 0.0132 0.0132
        Q-s-low E-s-low   Q-p-low E-p-low   Q-d-low E-d-low   Q-f-low E-f-low
:EPL008:  1.4982 -0.2992    0.0222 -1.5326    0.0071 -1.7557    0.0026 -1.7850
        Q-s-hi  E-s-hi    Q-p-hi  E-p-hi    Q-d-hi  E-d-hi    Q-f-hi  E-f-hi 
:EPH008:  0.0279  0.4622    3.2047  0.4849    0.0432  0.6801    0.0046  0.5991

                      VXX         VYY         VZZ       UP TO R
:VZZ008:            -0.00005    -0.00005     0.00011       1.840

:CHA  : TOTAL VALENCE CHARGE INSIDE UNIT CELL =      69.000000

:SUM  : SUM OF EIGENVALUES =         -54.082784194


        1.ATOM      Ti1                   4 CORE STATES
:1S 001: 1S                -356.583794902 Ry
:2S 001: 2S                 -38.267365140 Ry
:2PP001: 2P*                -31.736563331 Ry
:2P 001: 2P                 -31.312427501 Ry

        2.ATOM      Ti2                   4 CORE STATES
:1S 002: 1S                -356.583794721 Ry
:2S 002: 2S                 -38.267364968 Ry
:2PP002: 2P*                -31.736563157 Ry
:2P 002: 2P                 -31.312427327 Ry

        3.ATOM      Ti3                   4 CORE STATES
:1S 003: 1S                -356.583795093 Ry
:2S 003: 2S                 -38.267365322 Ry
:2PP003: 2P*                -31.736563514 Ry
:2P 003: 2P                 -31.312427684 Ry

        4.ATOM      Ti4                   4 CORE STATES
:1S 004: 1S                -356.583794635 Ry
:2S 004: 2S                 -38.267364886 Ry
:2PP004: 2P*                -31.736563074 Ry
:2P 004: 2P                 -31.312427244 Ry

        5.ATOM      N 5                   1 CORE STATES
:1S 005: 1S                 -26.887392034 Ry

        6.ATOM      N 6                   1 CORE STATES
:1S 006: 1S                 -26.887392128 Ry

        7.ATOM      N 7                   1 CORE STATES
:1S 007: 1S                 -26.887392070 Ry

        8.ATOM      N 8                   1 CORE STATES
:1S 008: 1S                 -26.887392112 Ry
:CINT001 Core Integral Atom   1    9.99999999
:CINT002 Core Integral Atom   2    9.99999999
:CINT003 Core Integral Atom   3    8.99999999
:CINT004 Core Integral Atom   4    9.99999999
:CINT005 Core Integral Atom   5    1.99999987
:CINT006 Core Integral Atom   6    1.99999987
:CINT007 Core Integral Atom   7    1.99999987
:CINT008 Core Integral Atom   8    1.99999987

       DENSITY AT NUCLEUS
        JATOM        VALENCE       SEMI-CORE          CORE           TOTAL
:RTO001:   1       97.401594        0.000000     8474.020233     8571.421827
:RTO002:   2       97.401593        0.000000     8474.020232     8571.421826
:RTO003:   3       97.401595        0.000000     8474.020209     8571.421804
:RTO004:   4       97.401593        0.000000     8474.020232     8571.421825
:RTO005:   5        8.917009        0.000000      200.429798      209.346808
:RTO006:   6        8.917010        0.000000      200.429798      209.346808
:RTO007:   7        8.917009        0.000000      200.429798      209.346808
:RTO008:   8        8.917009        0.000000      200.429798      209.346808
     
       CHARGES OF NEW CHARGE DENSITY
:NTO   : INTERSTITIAL CHARGE =     9.406470
:NPC   : INTERSTITIAL CHARGE =    28.517229
:NTO001: CHARGE SPHERE  1    =    20.085644
:NTO002: CHARGE SPHERE  2    =    20.085643
:NTO003: CHARGE SPHERE  3    =    19.085645
:NTO004: CHARGE SPHERE  4    =    20.085642
:NTO005: CHARGE SPHERE  5    =     6.812729
:NTO006: CHARGE SPHERE  6    =     6.812729
:NTO007: CHARGE SPHERE  7    =     6.812729
:NTO008: CHARGE SPHERE  8    =     6.812729

:NEC01: NUCLEAR AND ELECTRONIC CHARGE    116.00000   115.99996
     
       CHARGES OF OLD CHARGE DENSITY
:OTO   : INTERSTITIAL CHARGE =     9.220793
:OPC   : INTERSTITIAL CHARGE =    28.202158
:OTO001: CHARGE SPHERE  1    =    19.921059
:OTO002: CHARGE SPHERE  2    =    19.921059
:OTO003: CHARGE SPHERE  3    =    19.921059
:OTO004: CHARGE SPHERE  4    =    19.921059
:OTO005: CHARGE SPHERE  5    =     6.773743
:OTO006: CHARGE SPHERE  6    =     6.773743
:OTO007: CHARGE SPHERE  7    =     6.773743
:OTO008: CHARGE SPHERE  8    =     6.773743

:NEC02: NUCLEAR AND ELECTRONIC CHARGE    116.00000   116.00000
     
       CONVERGENCE TEST
:DTO001: DIFFERENCE IN SPHERE  1 =  0.1295737
:DTO002: DIFFERENCE IN SPHERE  2 =  0.1295728
:DTO003: DIFFERENCE IN SPHERE  3 =  7.2336088
:DTO004: DIFFERENCE IN SPHERE  4 =  0.1295723
:DTO005: DIFFERENCE IN SPHERE  5 =  0.0343100
:DTO006: DIFFERENCE IN SPHERE  6 =  0.0343102
:DTO007: DIFFERENCE IN SPHERE  7 =  0.0343101
:DTO008: DIFFERENCE IN SPHERE  8 =  0.0343101

:DIS  :  CHARGE DISTANCE       ( 7.2336088 for atom    3 spin 1)      0.9699460
 
******************************************************
* MULTISECANT MIXING VER9 RELEASE 10.8.2             *
* Standard Mode with step bound                      *
* Multisecant MSR1 Algorithm                         *
* Regularization       2.000E-04                     *
* Minimum Greed        1.000E-03                     *
* Max Number of Memory Steps    8                    *
******************************************************
 

:FULLRMS/Atom   2.5592446433
:PLANE:  PW TOTAL      7.1546 DISTAN   8.70E-02 %  1.22E+00
:CHARG:  CLM/ATOM     44.0378 DISTAN   9.05E-01 %  2.05E+00

Step History
        Dmix         Dmixt        Red     Pred      Step      Lambda    MagAbs    Beta
  1   3.5000E-02   3.5000E-02 -1.00E+00  1.00E+00 -1.00E+01  1.00E+00  2.53E-01  1.00E+00
:INFO :  Note, Pratt in use
:TRUST: Step 1.50E-01 Charge 3.25E-02 (e) CTO  3.00E-01 (e) PW  2.07E-01 (e)
Performing Pseudo Compensation  17  64
Final Pseudo Compensation Rescaling     9.97216E-01
:MIX  :   PRATT  REGULARIZATION:  2.00E-04 GREED: 0.01000                 
     
       CHARGES OF MIXED CHARGE DENSITY
:CTO   : INTERSTITIAL CHARGE =     9.222650
:CPC   : INTERSTITIAL CHARGE =    28.293199
:CTO001: CHARGE SPHERE  1    =    19.922705
:CTO002: CHARGE SPHERE  2    =    19.922705
:CTO003: CHARGE SPHERE  3    =    19.912704
:CTO004: CHARGE SPHERE  4    =    19.922705
:CTO005: CHARGE SPHERE  5    =     6.774133
:CTO006: CHARGE SPHERE  6    =     6.774133
:CTO007: CHARGE SPHERE  7    =     6.774133
:CTO008: CHARGE SPHERE  8    =     6.774133

:NEC03: NUCLEAR AND ELECTRONIC CHARGE    116.00000   116.00000

PW CHANGE     H    K    L      Current       Change    Residue
:PTO001:      0    0    0  7.28681141E-02  1.804E-04  9.729E-04
:PTO002:     -1    0    0 -7.36440615E-11 -1.535E-10 -7.083E-10
:PTO003:      0   -1    0  4.59316177E-10  9.592E-10  4.368E-09
:PTO004:      0    0   -1 -1.89855019E-10 -4.048E-10 -1.874E-09
:PTO005:     -1   -1    0 -2.20300087E-10 -4.172E-10 -1.929E-09
:PTO006:     -1    0   -1  4.92992712E-10  9.227E-10  4.376E-09
:PTO007:      0   -1   -1 -8.49101423E-11 -1.579E-10 -7.277E-10
:PTO008:     -1   -1   -1 -1.90264623E-02  1.885E-04  5.234E-04
:PTO009:     -2    0    0  3.78828393E-02  1.655E-04  8.306E-05
:PTO010:      0   -2    0  3.78828391E-02  1.655E-04  8.306E-05
:PTO011:      0    0   -2  3.78839995E-02  1.655E-04  8.309E-05
:PTO012:     -2   -1    0  7.43975843E-10  7.069E-10 -3.185E-11

:ENE  : ********** TOTAL ENERGY IN Ry =        -7237.44006043

 Euler-Maclaurian Coulomb
 Consistent 3/8+Simpson combinations at start/end
 New Mode for Coulomb Integral
 Extension of core to zero
 LDM version in phi
 Fifth-order quadrature in outwin
 Lebedev-Laikov Grid in lapw0


            ---------
:ITE010: 10. ITERATION
            ---------

:NATO :    8 INDEPENDENT AND    8 TOTAL ATOMS IN UNITCELL
       SUBSTANCE: blebleble                                                   

       LATTICE                      = P   
:POT  : POTENTIAL OPTION EX_PBE EC_PBE VX_PBE VC_PBE
:LAT  : LATTICE CONSTANTS=  8.01479  8.01479  8.01479    1.571    1.571    1.571
:VOL  : UNIT CELL VOLUME =     514.84590
       MODE OF CALCULATION IS       = RELA
       NON-SPINPOLARIZED CALCULATION
:IFFT  : FFT-parameters:   64   64   64 Factor: 2.00


   CONVERGENCE PARAMETER FOR PSEUDOCHARGE: NCON=  9
   MAXIMAL VALUE OF RMT(JATOM)*ABSK(NKK) : RK  =25.66310


:VKCOUL :  VK-COUL convergence: 0.418E-10
 Lebedev grid of          350
 Lebedev grid of          350
 Lebedev grid of          350
 Lebedev grid of          350
 Lebedev grid of          350
 Lebedev grid of          350
 Lebedev grid of          350
 Lebedev grid of          350
:VCOUL001 ATOMNUMBER=  1 Ti1     VCOUL-ZERO =  0.45059E+00
:EFG001:                        EFG         =    -0.00405   *10**21  V / m**2
                               V20  TOT/SRF=    -0.00351     0.00074
                               V22  TOT/SRF=     0.00123     0.00123
                               V22M TOT/SRF=     0.00000     0.00000
                               V21  TOT/SRF=     0.00000     0.00000
                               V21M TOT/SRF=     0.00000     0.00000

              0.00325    0.00000    0.00000        0.00325    0.00000    0.00000
              0.00000    0.00080    0.00000        0.00000    0.00080    0.00000
              0.00000    0.00000   -0.00405        0.00000    0.00000   -0.00405

         MAIN DIRECTIONS OF THE EFG   1.0000 -0.0000 -0.0000
                                      0.0000  1.0000 -0.0000
                                      0.0000  0.0000  1.0000
:ANG001:  ANGLE WITH OLD X-AXIS =         0.0

:ETA001:                         ASYMM. ETA =     0.60578


:VCOUL002 ATOMNUMBER=  2 Ti2     VCOUL-ZERO =  0.45059E+00
:EFG002:                        EFG         =    -0.00650   *10**21  V / m**2
                               V20  TOT/SRF=    -0.00563    -0.00138
                               V22  TOT/SRF=    -0.00000    -0.00000
                               V22M TOT/SRF=     0.00000     0.00000
                               V21  TOT/SRF=     0.00000     0.00000
                               V21M TOT/SRF=     0.00000     0.00000

              0.00325    0.00000    0.00000        0.00325    0.00000    0.00000
              0.00000    0.00325    0.00000        0.00000    0.00325    0.00000
              0.00000    0.00000   -0.00650        0.00000    0.00000   -0.00650

         MAIN DIRECTIONS OF THE EFG   1.0000  0.0000 -0.0000
                                      0.0000  1.0000 -0.0000
                                      0.0000  0.0000  1.0000
:ANG002:  ANGLE WITH OLD X-AXIS =         0.0

:ETA002:                         ASYMM. ETA =     0.00009


:VCOUL003 ATOMNUMBER=  3 Ti3     VCOUL-ZERO =  0.44687E+00
:EFG003:                        EFG         =    -0.00487   *10**21  V / m**2
                               V20  TOT/SRF=    -0.00422     0.00004
                               V22  TOT/SRF=    -0.00000     0.00000
                               V22M TOT/SRF=     0.00000     0.00000
                               V21  TOT/SRF=     0.00000     0.00000
                               V21M TOT/SRF=     0.00000     0.00000

              0.00243    0.00000    0.00000        0.00243    0.00000    0.00000
              0.00000    0.00243    0.00000        0.00000    0.00243    0.00000
              0.00000    0.00000   -0.00487        0.00000    0.00000   -0.00487

         MAIN DIRECTIONS OF THE EFG   1.0000  0.0000 -0.0000
                                      0.0000  1.0000 -0.0000
                                      0.0000  0.0000  1.0000
:ANG003:  ANGLE WITH OLD X-AXIS =         0.0

:ETA003:                         ASYMM. ETA =     0.00017


:VCOUL004 ATOMNUMBER=  4 Ti4     VCOUL-ZERO =  0.45059E+00
:EFG004:                        EFG         =    -0.00405   *10**21  V / m**2
                               V20  TOT/SRF=    -0.00351     0.00074
                               V22  TOT/SRF=    -0.00123    -0.00123
                               V22M TOT/SRF=     0.00000     0.00000
                               V21  TOT/SRF=     0.00000     0.00000
                               V21M TOT/SRF=     0.00000     0.00000

              0.00080    0.00000    0.00000        0.00080    0.00000    0.00000
              0.00000    0.00325    0.00000        0.00000    0.00325    0.00000
              0.00000    0.00000   -0.00405        0.00000    0.00000   -0.00405

         MAIN DIRECTIONS OF THE EFG   1.0000  0.0000 -0.0000
                                      0.0000  1.0000 -0.0000
                                      0.0000  0.0000  1.0000
:ANG004:  ANGLE WITH OLD X-AXIS =         0.0

:ETA004:                         ASYMM. ETA =     0.60614


:VCOUL005 ATOMNUMBER=  5 N 5     VCOUL-ZERO =  0.65998E+00
:EFG005:                        EFG         =     0.00014   *10**21  V / m**2
                               V20  TOT/SRF=     0.00012     0.00005
                               V22  TOT/SRF=     0.00000    -0.00000
                               V22M TOT/SRF=     0.00000     0.00000
                               V21  TOT/SRF=     0.00000     0.00000
                               V21M TOT/SRF=     0.00000     0.00000

             -0.00007    0.00000    0.00000       -0.00007    0.00000    0.00000
              0.00000   -0.00007    0.00000        0.00000   -0.00007    0.00000
              0.00000    0.00000    0.00014        0.00000    0.00000    0.00014

         MAIN DIRECTIONS OF THE EFG   1.0000 -0.0000  0.0000
                                      0.0000  1.0000  0.0000
                                      0.0000  0.0000  1.0000
:ANG005:  ANGLE WITH OLD X-AXIS =         0.0

:ETA005:                         ASYMM. ETA =     0.00114


:VCOUL006 ATOMNUMBER=  6 N 6     VCOUL-ZERO =  0.65822E+00
:EFG006:                        EFG         =     0.00561   *10**21  V / m**2
                               V20  TOT/SRF=    -0.00234    -0.00241
                               V22  TOT/SRF=     0.00426     0.00426
                               V22M TOT/SRF=     0.00000     0.00000
                               V21  TOT/SRF=     0.00000     0.00000
                               V21M TOT/SRF=     0.00000     0.00000

              0.00561    0.00000    0.00000        0.00561    0.00000    0.00000
              0.00000   -0.00291    0.00000        0.00000   -0.00291    0.00000
              0.00000    0.00000   -0.00270        0.00000    0.00000   -0.00270

         MAIN DIRECTIONS OF THE EFG   1.0000 -0.0000 -0.0000
                                      0.0000  1.0000  0.0000
                                      0.0000  0.0000  1.0000
:ANG006:  ANGLE WITH OLD X-AXIS =         0.0

:ETA006:                         ASYMM. ETA =     0.03672


:VCOUL007 ATOMNUMBER=  7 N 7     VCOUL-ZERO =  0.65822E+00
:EFG007:                        EFG         =     0.00561   *10**21  V / m**2
                               V20  TOT/SRF=    -0.00234    -0.00241
                               V22  TOT/SRF=    -0.00426    -0.00426
                               V22M TOT/SRF=     0.00000     0.00000
                               V21  TOT/SRF=     0.00000     0.00000
                               V21M TOT/SRF=     0.00000     0.00000

             -0.00291    0.00000    0.00000       -0.00291    0.00000    0.00000
              0.00000    0.00561    0.00000        0.00000    0.00561    0.00000
              0.00000    0.00000   -0.00270        0.00000    0.00000   -0.00270

         MAIN DIRECTIONS OF THE EFG   1.0000  0.0000  0.0000
                                      0.0000  1.0000 -0.0000
                                      0.0000  0.0000  1.0000
:ANG007:  ANGLE WITH OLD X-AXIS =         0.0

:ETA007:                         ASYMM. ETA =     0.03669


:VCOUL008 ATOMNUMBER=  8 N 8     VCOUL-ZERO =  0.65822E+00
:EFG008:                        EFG         =     0.00582   *10**21  V / m**2
                               V20  TOT/SRF=     0.00504     0.00497
                               V22  TOT/SRF=     0.00000     0.00000
                               V22M TOT/SRF=     0.00000     0.00000
                               V21  TOT/SRF=     0.00000     0.00000
                               V21M TOT/SRF=     0.00000     0.00000

             -0.00291    0.00000    0.00000       -0.00291    0.00000    0.00000
              0.00000   -0.00291    0.00000        0.00000   -0.00291    0.00000
              0.00000    0.00000    0.00582        0.00000    0.00000    0.00582

         MAIN DIRECTIONS OF THE EFG   1.0000 -0.0000  0.0000
                                      0.0000  1.0000  0.0000
                                      0.0000  0.0000  1.0000
:ANG008:  ANGLE WITH OLD X-AXIS =         0.0

:ETA008:                         ASYMM. ETA =     0.00003


:FIT001: LUSE= 13 SIGMA OF V-XC FIT FOR ATOM  1  0.1889586E-01
:FIT001: LUSE= 13 SIGMA OF V-XC FIT FOR ATOM  1  0.1889586E-01
:FIT002: LUSE= 13 SIGMA OF V-XC FIT FOR ATOM  2  0.1889586E-01
:FIT002: LUSE= 13 SIGMA OF V-XC FIT FOR ATOM  2  0.1889586E-01
:FIT003: LUSE= 13 SIGMA OF V-XC FIT FOR ATOM  3  0.1889586E-01
:FIT003: LUSE= 13 SIGMA OF V-XC FIT FOR ATOM  3  0.1889586E-01
:FIT004: LUSE= 13 SIGMA OF V-XC FIT FOR ATOM  4  0.1889586E-01
:FIT004: LUSE= 13 SIGMA OF V-XC FIT FOR ATOM  4  0.1889586E-01
:FIT005: LUSE= 13 SIGMA OF V-XC FIT FOR ATOM  5  0.8689869E-03
:FIT005: LUSE= 13 SIGMA OF V-XC FIT FOR ATOM  5  0.8689869E-03
:FIT006: LUSE= 13 SIGMA OF V-XC FIT FOR ATOM  6  0.8689869E-03
:FIT006: LUSE= 13 SIGMA OF V-XC FIT FOR ATOM  6  0.8689869E-03
:FIT007: LUSE= 13 SIGMA OF V-XC FIT FOR ATOM  7  0.8689869E-03
:FIT007: LUSE= 13 SIGMA OF V-XC FIT FOR ATOM  7  0.8689869E-03
:FIT008: LUSE= 13 SIGMA OF V-XC FIT FOR ATOM  8  0.8689869E-03
:FIT008: LUSE= 13 SIGMA OF V-XC FIT FOR ATOM  8  0.8689869E-03
:DEN  : DENSITY INTEGRAL  =         -3085.39759978   (Ry)
       ELS_POTENTIAL_AT Z=0 and Z=0.5:  -0.97758  -0.98079
       ELS_POTENTIAL_AT Y=0 and Y=0.5:  -0.98080  -0.97758
:VZERO:v0,v0c,v0x  -2.00656  -0.97758  -1.02898 v5,v5c,v5x  -2.00977  -0.98079  -1.02898
:VZERY:v0,v0c,v0x  -2.00978  -0.98080  -1.02898 v5,v5c,v5x  -2.00656  -0.97758  -1.02898
:VZERX:v0,v0c,v0x  -2.00656  -0.97758  -1.02898 v5,v5c,v5x  -2.00978  -0.98080  -1.02898
:LMAX-WF:   10   Non-Spherical LMAX:   4

          ATOMIC SPHERE DEPENDENT PARAMETERS FOR ATOM  Ti1       
:e__0001: OVERALL ENERGY PARAMETER IS    0.6644
          OVERALL BASIS SET ON ATOM IS LAPW
:E0_0001: E( 0)=    0.6644
             APW+lo
:E0_0001: E( 0)=   -3.4298   E(BOTTOM)=   -3.615   E(TOP)=   -3.244  2  3   192
             LOCAL ORBITAL
:E1_0001: E( 1)=    0.6644
             APW+lo
:E1_0001: E( 1)=   -1.7003   E(BOTTOM)=   -2.009   E(TOP)=   -1.392  1  2   189
             LOCAL ORBITAL
:E2_0001: E( 2)=    0.9349   E(BOTTOM)=    0.360   E(TOP)=    1.510  0  1   152
             APW+lo

          ATOMIC SPHERE DEPENDENT PARAMETERS FOR ATOM  Ti2       
:e__0002: OVERALL ENERGY PARAMETER IS    0.6644
          OVERALL BASIS SET ON ATOM IS LAPW
:E0_0002: E( 0)=    0.6644
             APW+lo
:E0_0002: E( 0)=   -3.4298   E(BOTTOM)=   -3.615   E(TOP)=   -3.244  2  3   193
             LOCAL ORBITAL
:E1_0002: E( 1)=    0.6644
             APW+lo
:E1_0002: E( 1)=   -1.7003   E(BOTTOM)=   -2.009   E(TOP)=   -1.392  1  2   190
             LOCAL ORBITAL
:E2_0002: E( 2)=    0.9349   E(BOTTOM)=    0.360   E(TOP)=    1.510  0  1   153
             APW+lo

          ATOMIC SPHERE DEPENDENT PARAMETERS FOR ATOM  Ti3       
:e__0003: OVERALL ENERGY PARAMETER IS    0.6644
          OVERALL BASIS SET ON ATOM IS LAPW
:E0_0003: E( 0)=    0.6644
             APW+lo
:E0_0003: E( 0)=   -3.4477   E(BOTTOM)=   -3.632   E(TOP)=   -3.263  2  3   186
             LOCAL ORBITAL
:E1_0003: E( 1)=    0.6644
             APW+lo
:E1_0003: E( 1)=   -1.7171   E(BOTTOM)=   -2.024   E(TOP)=   -1.410  1  2   189
             LOCAL ORBITAL
:E2_0003: E( 2)=    0.9202   E(BOTTOM)=    0.349   E(TOP)=    1.492  0  1   158
             APW+lo

          ATOMIC SPHERE DEPENDENT PARAMETERS FOR ATOM  Ti4       
:e__0004: OVERALL ENERGY PARAMETER IS    0.6644
          OVERALL BASIS SET ON ATOM IS LAPW
:E0_0004: E( 0)=    0.6644
             APW+lo
:E0_0004: E( 0)=   -3.4298   E(BOTTOM)=   -3.615   E(TOP)=   -3.244  2  3   193
             LOCAL ORBITAL
:E1_0004: E( 1)=    0.6644
             APW+lo
:E1_0004: E( 1)=   -1.7003   E(BOTTOM)=   -2.009   E(TOP)=   -1.392  1  2   191
             LOCAL ORBITAL
:E2_0004: E( 2)=    0.9349   E(BOTTOM)=    0.360   E(TOP)=    1.510  0  1   153
             APW+lo

          ATOMIC SPHERE DEPENDENT PARAMETERS FOR ATOM  N 5       
:e__0005: OVERALL ENERGY PARAMETER IS    0.6644
          OVERALL BASIS SET ON ATOM IS LAPW
:E0_0005: E( 0)=    1.0644
             APW+lo
:E0_0005: E( 0)=   -0.1372   E(BOTTOM)=   -1.224   E(TOP)=    0.950  1  2   212
             LOCAL ORBITAL
:E1_0005: E( 1)=    0.6644
             APW+lo

          ATOMIC SPHERE DEPENDENT PARAMETERS FOR ATOM  N 6       
:e__0006: OVERALL ENERGY PARAMETER IS    0.6644
          OVERALL BASIS SET ON ATOM IS LAPW
:E0_0006: E( 0)=    1.0644
             APW+lo
:E0_0006: E( 0)=   -0.1389   E(BOTTOM)=   -1.226   E(TOP)=    0.948  1  2   210
             LOCAL ORBITAL
:E1_0006: E( 1)=    0.6644
             APW+lo

          ATOMIC SPHERE DEPENDENT PARAMETERS FOR ATOM  N 7       
:e__0007: OVERALL ENERGY PARAMETER IS    0.6644
          OVERALL BASIS SET ON ATOM IS LAPW
:E0_0007: E( 0)=    1.0644
             APW+lo
:E0_0007: E( 0)=   -0.1389   E(BOTTOM)=   -1.226   E(TOP)=    0.948  1  2   210
             LOCAL ORBITAL
:E1_0007: E( 1)=    0.6644
             APW+lo

          ATOMIC SPHERE DEPENDENT PARAMETERS FOR ATOM  N 8       
:e__0008: OVERALL ENERGY PARAMETER IS    0.6644
          OVERALL BASIS SET ON ATOM IS LAPW
:E0_0008: E( 0)=    1.0644
             APW+lo
:E0_0008: E( 0)=   -0.1389   E(BOTTOM)=   -1.226   E(TOP)=    0.948  1  2   211
             LOCAL ORBITAL
:E1_0008: E( 1)=    0.6644
             APW+lo

       K=  0.000000  0.000000  0.000000            1
:RKM  : MATRIX SIZE   533LOs:  72  RKM= 6.77  WEIGHT= 1.00  PGR:    
       EIGENVALUES ARE:
:EIG00001:      -3.4118699   -3.3962863   -3.3903207   -3.3903206   -1.6801115
:EIG00006:      -1.6801096   -1.6801096   -1.6574448   -1.6574426   -1.6574425
:EIG00011:      -1.6496653   -1.6496631   -1.6496631   -1.6370014   -1.6369988
:EIG00016:      -1.6369987   -0.4082707   -0.3033198   -0.3033190   -0.3019397
:EIG00021:       0.4210589    0.4210589    0.4210685    0.6120579    0.6120579
:EIG00026:       0.6120753    0.6121226    0.6121226    0.6121400    0.6240014
:EIG00031:       0.6240014    0.6240043    0.6995894    0.6995894    0.6996110
:EIG00036:       0.8039834    0.8039834    0.8039867    0.8919271    0.8919471
:EIG00041:       0.9682404    0.9682501    0.9731650    1.0206462    1.0206462
:EIG00046:       1.0206483    1.0278199    1.0278200    1.0278220    1.1125739

:EIG00051:       1.1125786    1.1175803    1.2484882    1.6290196    1.6326854
:EIG00056:       1.6326978    1.7185851    1.7185851    1.7185899    1.8213396
:EIG00061:       1.9143951    1.9143951    1.9143968    2.2519831    2.2519838
:EIG00066:       2.2519838    2.2532112    2.2532119    2.2532119    2.3173047
:EIG00071:       2.3173047    2.3173086
       ********************************************************

:KPT   :      NUMBER OF K-POINTS:   216


       TEMP.-SMEARING WITH    0.00190 Ry 
          -S / Kb           =  -0.34827144
          -(T*S)            =  -0.00066172
          Chem Pot          =   0.86907931
         Bandranges (emin - emax) and occupancy:
:BAN00028:  28    0.447844    0.612123  2.00000000
:BAN00029:  29    0.447845    0.612140  2.00000000
:BAN00030:  30    0.448126    0.643810  2.00000000
:BAN00031:  31    0.448126    0.658321  2.00000000
:BAN00032:  32    0.448142    0.674915  2.00000000
:BAN00033:  33    0.654724    0.967305  1.49851237
:BAN00034:  34    0.676645    0.967305  1.42619235
:BAN00035:  35    0.685983    0.967307  0.94001259
:BAN00036:  36    0.782310    0.975186  0.72805275
:BAN00037:  37    0.803983    0.975189  0.24836569
:BAN00038:  38    0.803987    0.976216  0.15886418
:BAN00039:  39    0.891927    1.000717  0.00000004
:BAN00040:  40    0.891947    1.001043  0.00000001
:BAN00041:  41    0.962054    1.021887  0.00000000
:BAN00042:  42    0.962248    1.021887  0.00000000
:BAN00043:  43    0.973165    1.023731  0.00000000
        Energy to separate low and high energystates:    0.20481


:NOE  : NUMBER OF ELECTRONS          =   69.000

:FER  : F E R M I - ENERGY(FERMI-SM.)=   0.8690793111
:GMA  : POTENTIAL AND CHARGE CUT-OFF  12.00 Ry**.5

:POS001: ATOM   -1 X,Y,Z = 0.00000 0.00000 0.00000  MULT= 1  ZZ= 22.000  Ti1       

       LMMAX 10
       LM=   0 0  2 0  2 2  4 0  4 2  4 4  6 0  6 2  6 4  6 6

:CHA001: TOTAL VALENCE CHARGE INSIDE SPHERE   1 =  10.0585    (RMT=  2.1400 )
:PCS001: PARTIAL CHARGES SPHERE =  1 S,P,D,F,PX,PY,PZ,D-Z2,D-X2Y2,D-XY,D-XZ,D-YZ 
:QTL001: 2.1117 6.0565 1.8408 0.0416 2.0188 2.0189 2.0188 0.3472 0.3476 0.3841 0.3778 0.3841
        Q-s-low E-s-low   Q-p-low E-p-low   Q-d-low E-d-low   Q-f-low E-f-low
:EPL001:  2.0123 -3.3394    5.8634 -1.6363    0.0662 -0.2821    0.0060 -0.2962
        Q-s-hi  E-s-hi    Q-p-hi  E-p-hi    Q-d-hi  E-d-hi    Q-f-hi  E-f-hi 
:EPH001:  0.0994  0.3816    0.1931  0.4687    1.7746  0.6096    0.0356  0.5784

                      VXX         VYY         VZZ       UP TO R
:VZZ001:             0.07092    -0.13455     0.06364       2.140

:POS002: ATOM   -2 X,Y,Z = 0.00000 0.50000 0.50000  MULT= 1  ZZ= 22.000  Ti2       

       LMMAX 10
       LM=   0 0  2 0  2 2  4 0  4 2  4 4  6 0  6 2  6 4  6 6

:CHA002: TOTAL VALENCE CHARGE INSIDE SPHERE   2 =  10.0585    (RMT=  2.1400 )
:PCS002: PARTIAL CHARGES SPHERE =  2 S,P,D,F,PX,PY,PZ,D-Z2,D-X2Y2,D-XY,D-XZ,D-YZ 
:QTL002: 2.1117 6.0565 1.8408 0.0416 2.0188 2.0188 2.0189 0.3477 0.3470 0.3778 0.3841 0.3841
        Q-s-low E-s-low   Q-p-low E-p-low   Q-d-low E-d-low   Q-f-low E-f-low
:EPL002:  2.0123 -3.3394    5.8634 -1.6363    0.0662 -0.2821    0.0060 -0.2962
        Q-s-hi  E-s-hi    Q-p-hi  E-p-hi    Q-d-hi  E-d-hi    Q-f-hi  E-f-hi 
:EPH002:  0.0994  0.3816    0.1931  0.4687    1.7746  0.6096    0.0356  0.5784

                      VXX         VYY         VZZ       UP TO R
:VZZ002:             0.07092     0.07092    -0.14184       2.140

:POS003: ATOM   -3 X,Y,Z = 0.50000 0.00000 0.50000  MULT= 1  ZZ= 22.000  Ti3       

       LMMAX 10
       LM=   0 0  2 0  2 2  4 0  4 2  4 4  6 0  6 2  6 4  6 6

:CHA003: TOTAL VALENCE CHARGE INSIDE SPHERE   3 =  10.1903    (RMT=  2.1400 )
:PCS003: PARTIAL CHARGES SPHERE =  3 S,P,D,F,PX,PY,PZ,D-Z2,D-X2Y2,D-XY,D-XZ,D-YZ 
:QTL003: 2.1127 6.0589 1.9690 0.0418 2.0196 2.0196 2.0196 0.3569 0.3570 0.4184 0.4184 0.4184
        Q-s-low E-s-low   Q-p-low E-p-low   Q-d-low E-d-low   Q-f-low E-f-low
:EPL003:  2.0127 -3.3569    5.8660 -1.6530    0.0671 -0.2827    0.0060 -0.2967
        Q-s-hi  E-s-hi    Q-p-hi  E-p-hi    Q-d-hi  E-d-hi    Q-f-hi  E-f-hi 
:EPH003:  0.1000  0.3798    0.1929  0.4667    1.9019  0.6151    0.0358  0.5780

                      VXX         VYY         VZZ       UP TO R
:VZZ003:             0.00242     0.00242    -0.00485       2.140

:POS004: ATOM   -4 X,Y,Z = 0.50000 0.50000 0.00000  MULT= 1  ZZ= 22.000  Ti4       

       LMMAX 10
       LM=   0 0  2 0  2 2  4 0  4 2  4 4  6 0  6 2  6 4  6 6

:CHA004: TOTAL VALENCE CHARGE INSIDE SPHERE   4 =  10.0585    (RMT=  2.1400 )
:PCS004: PARTIAL CHARGES SPHERE =  4 S,P,D,F,PX,PY,PZ,D-Z2,D-X2Y2,D-XY,D-XZ,D-YZ 
:QTL004: 2.1117 6.0565 1.8408 0.0416 2.0189 2.0188 2.0188 0.3472 0.3476 0.3841 0.3841 0.3778
        Q-s-low E-s-low   Q-p-low E-p-low   Q-d-low E-d-low   Q-f-low E-f-low
:EPL004:  2.0123 -3.3394    5.8634 -1.6363    0.0662 -0.2821    0.0060 -0.2962
        Q-s-hi  E-s-hi    Q-p-hi  E-p-hi    Q-d-hi  E-d-hi    Q-f-hi  E-f-hi 
:EPH004:  0.0994  0.3816    0.1931  0.4687    1.7746  0.6096    0.0356  0.5784

                      VXX         VYY         VZZ       UP TO R
:VZZ004:            -0.13455     0.07092     0.06364       2.140

:POS005: ATOM   -5 X,Y,Z = 0.00000 0.50000 0.00000  MULT= 1  ZZ=  7.000  N 5       

       LMMAX 10
       LM=   0 0  2 0  2 2  4 0  4 2  4 4  6 0  6 2  6 4  6 6

:CHA005: TOTAL VALENCE CHARGE INSIDE SPHERE   5 =   4.8080    (RMT=  1.8400 )
:PCS005: PARTIAL CHARGES SPHERE =  5 S,P,D,F,PX,PY,PZ,D-Z2,D-X2Y2,D-XY,D-XZ,D-YZ 
:QTL005: 1.5259 3.2229 0.0498 0.0071 1.0743 1.0743 1.0743 0.0053 0.0053 0.0131 0.0131 0.0131
        Q-s-low E-s-low   Q-p-low E-p-low   Q-d-low E-d-low   Q-f-low E-f-low
:EPL005:  1.4980 -0.2968    0.0222 -1.5310    0.0071 -1.7531    0.0026 -1.7824
        Q-s-hi  E-s-hi    Q-p-hi  E-p-hi    Q-d-hi  E-d-hi    Q-f-hi  E-f-hi 
:EPH005:  0.0279  0.4616    3.2007  0.4867    0.0427  0.6804    0.0046  0.5976

                      VXX         VYY         VZZ       UP TO R
:VZZ005:            -0.00006    -0.00006     0.00011       1.840

:POS006: ATOM   -6 X,Y,Z = 0.00000 0.00000 0.50000  MULT= 1  ZZ=  7.000  N 6       

       LMMAX 10
       LM=   0 0  2 0  2 2  4 0  4 2  4 4  6 0  6 2  6 4  6 6

:CHA006: TOTAL VALENCE CHARGE INSIDE SPHERE   6 =   4.8081    (RMT=  1.8400 )
:PCS006: PARTIAL CHARGES SPHERE =  6 S,P,D,F,PX,PY,PZ,D-Z2,D-X2Y2,D-XY,D-XZ,D-YZ 
:QTL006: 1.5258 3.2225 0.0503 0.0072 1.0719 1.0753 1.0753 0.0053 0.0053 0.0133 0.0133 0.0131
        Q-s-low E-s-low   Q-p-low E-p-low   Q-d-low E-d-low   Q-f-low E-f-low
:EPL006:  1.4979 -0.2987    0.0221 -1.5338    0.0071 -1.7582    0.0026 -1.7875
        Q-s-hi  E-s-hi    Q-p-hi  E-p-hi    Q-d-hi  E-d-hi    Q-f-hi  E-f-hi 
:EPH006:  0.0280  0.4633    3.2004  0.4851    0.0432  0.6794    0.0047  0.5996

                      VXX         VYY         VZZ       UP TO R
:VZZ006:             0.12254    -0.06136    -0.06118       1.840

:POS007: ATOM   -7 X,Y,Z = 0.50000 0.50000 0.50000  MULT= 1  ZZ=  7.000  N 7       

       LMMAX 10
       LM=   0 0  2 0  2 2  4 0  4 2  4 4  6 0  6 2  6 4  6 6

:CHA007: TOTAL VALENCE CHARGE INSIDE SPHERE   7 =   4.8081    (RMT=  1.8400 )
:PCS007: PARTIAL CHARGES SPHERE =  7 S,P,D,F,PX,PY,PZ,D-Z2,D-X2Y2,D-XY,D-XZ,D-YZ 
:QTL007: 1.5258 3.2225 0.0503 0.0072 1.0753 1.0719 1.0753 0.0053 0.0053 0.0133 0.0131 0.0133
        Q-s-low E-s-low   Q-p-low E-p-low   Q-d-low E-d-low   Q-f-low E-f-low
:EPL007:  1.4979 -0.2987    0.0221 -1.5338    0.0071 -1.7582    0.0026 -1.7875
        Q-s-hi  E-s-hi    Q-p-hi  E-p-hi    Q-d-hi  E-d-hi    Q-f-hi  E-f-hi 
:EPH007:  0.0280  0.4633    3.2004  0.4851    0.0432  0.6794    0.0047  0.5996

                      VXX         VYY         VZZ       UP TO R
:VZZ007:            -0.06136     0.12254    -0.06118       1.840

:POS008: ATOM   -8 X,Y,Z = 0.50000 0.00000 0.00000  MULT= 1  ZZ=  7.000  N 8       

       LMMAX 10
       LM=   0 0  2 0  2 2  4 0  4 2  4 4  6 0  6 2  6 4  6 6

:CHA008: TOTAL VALENCE CHARGE INSIDE SPHERE   8 =   4.8081    (RMT=  1.8400 )
:PCS008: PARTIAL CHARGES SPHERE =  8 S,P,D,F,PX,PY,PZ,D-Z2,D-X2Y2,D-XY,D-XZ,D-YZ 
:QTL008: 1.5258 3.2225 0.0503 0.0072 1.0753 1.0753 1.0719 0.0053 0.0053 0.0131 0.0133 0.0133
        Q-s-low E-s-low   Q-p-low E-p-low   Q-d-low E-d-low   Q-f-low E-f-low
:EPL008:  1.4979 -0.2987    0.0221 -1.5338    0.0071 -1.7582    0.0026 -1.7875
        Q-s-hi  E-s-hi    Q-p-hi  E-p-hi    Q-d-hi  E-d-hi    Q-f-hi  E-f-hi 
:EPH008:  0.0280  0.4633    3.2004  0.4851    0.0432  0.6794    0.0047  0.5996

                      VXX         VYY         VZZ       UP TO R
:VZZ008:            -0.06135    -0.06135     0.12270       1.840

:CHA  : TOTAL VALENCE CHARGE INSIDE UNIT CELL =      69.000000

:SUM  : SUM OF EIGENVALUES =         -54.111645076


        1.ATOM      Ti1                   4 CORE STATES
:1S 001: 1S                -356.580300309 Ry
:2S 001: 2S                 -38.263939564 Ry
:2PP001: 2P*                -31.733122480 Ry
:2P 001: 2P                 -31.308987963 Ry

        2.ATOM      Ti2                   4 CORE STATES
:1S 002: 1S                -356.580300146 Ry
:2S 002: 2S                 -38.263939409 Ry
:2PP002: 2P*                -31.733122324 Ry
:2P 002: 2P                 -31.308987806 Ry

        3.ATOM      Ti3                   4 CORE STATES
:1S 003: 1S                -356.660496941 Ry
:2S 003: 2S                 -38.315000178 Ry
:2PP003: 2P*                -31.788522919 Ry
:2P 003: 2P                 -31.364101395 Ry

        4.ATOM      Ti4                   4 CORE STATES
:1S 004: 1S                -356.580300068 Ry
:2S 004: 2S                 -38.263939334 Ry
:2PP004: 2P*                -31.733122248 Ry
:2P 004: 2P                 -31.308987731 Ry

        5.ATOM      N 5                   1 CORE STATES
:1S 005: 1S                 -26.884711019 Ry

        6.ATOM      N 6                   1 CORE STATES
:1S 006: 1S                 -26.886472857 Ry

        7.ATOM      N 7                   1 CORE STATES
:1S 007: 1S                 -26.886472804 Ry

        8.ATOM      N 8                   1 CORE STATES
:1S 008: 1S                 -26.886472842 Ry
:CINT001 Core Integral Atom   1    9.99999999
:CINT002 Core Integral Atom   2    9.99999999
:CINT003 Core Integral Atom   3    8.99999999
:CINT004 Core Integral Atom   4    9.99999999
:CINT005 Core Integral Atom   5    1.99999987
:CINT006 Core Integral Atom   6    1.99999987
:CINT007 Core Integral Atom   7    1.99999987
:CINT008 Core Integral Atom   8    1.99999987

       DENSITY AT NUCLEUS
        JATOM        VALENCE       SEMI-CORE          CORE           TOTAL
:RTO001:   1       97.386343        0.000000     8474.018152     8571.404495
:RTO002:   2       97.386342        0.000000     8474.018152     8571.404494
:RTO003:   3       97.594859        0.000000     8474.465738     8572.060597
:RTO004:   4       97.386341        0.000000     8474.018152     8571.404493
:RTO005:   5        8.914751        0.000000      200.429582      209.344333
:RTO006:   6        8.914146        0.000000      200.429582      209.343727
:RTO007:   7        8.914146        0.000000      200.429582      209.343727
:RTO008:   8        8.914146        0.000000      200.429582      209.343728
     
       CHARGES OF NEW CHARGE DENSITY
:NTO   : INTERSTITIAL CHARGE =     9.401946
:NPC   : INTERSTITIAL CHARGE =    28.502506
:NTO001: CHARGE SPHERE  1    =    20.058529
:NTO002: CHARGE SPHERE  2    =    20.058529
:NTO003: CHARGE SPHERE  3    =    19.190315
:NTO004: CHARGE SPHERE  4    =    20.058528
:NTO005: CHARGE SPHERE  5    =     6.807954
:NTO006: CHARGE SPHERE  6    =     6.808053
:NTO007: CHARGE SPHERE  7    =     6.808053
:NTO008: CHARGE SPHERE  8    =     6.808053

:NEC01: NUCLEAR AND ELECTRONIC CHARGE    116.00000   115.99996
     
       CHARGES OF OLD CHARGE DENSITY
:OTO   : INTERSTITIAL CHARGE =     9.222650
:OPC   : INTERSTITIAL CHARGE =    28.293199
:OTO001: CHARGE SPHERE  1    =    19.922705
:OTO002: CHARGE SPHERE  2    =    19.922705
:OTO003: CHARGE SPHERE  3    =    19.912704
:OTO004: CHARGE SPHERE  4    =    19.922705
:OTO005: CHARGE SPHERE  5    =     6.774133
:OTO006: CHARGE SPHERE  6    =     6.774133
:OTO007: CHARGE SPHERE  7    =     6.774133
:OTO008: CHARGE SPHERE  8    =     6.774133

:NEC02: NUCLEAR AND ELECTRONIC CHARGE    116.00000   116.00000
     
       CONVERGENCE TEST
:DTO001: DIFFERENCE IN SPHERE  1 =  0.1061123
:DTO002: DIFFERENCE IN SPHERE  2 =  0.1061121
:DTO003: DIFFERENCE IN SPHERE  3 =  7.1188182
:DTO004: DIFFERENCE IN SPHERE  4 =  0.1061111
:DTO005: DIFFERENCE IN SPHERE  5 =  0.0294000
:DTO006: DIFFERENCE IN SPHERE  6 =  0.0292593
:DTO007: DIFFERENCE IN SPHERE  7 =  0.0292592
:DTO008: DIFFERENCE IN SPHERE  8 =  0.0292600

:DIS  :  CHARGE DISTANCE       ( 7.1188182 for atom    3 spin 1)      0.9442915
 
******************************************************
* MULTISECANT MIXING VER9 RELEASE 10.8.2             *
* Standard Mode with step bound                      *
* Multisecant MSR1 Algorithm                         *
* Regularization       2.000E-04                     *
* Minimum Greed        1.000E-03                     *
* Max Number of Memory Steps    8                    *
******************************************************
 
 :WARNING:  Number of PWs changed, you may want to restart broyden after iteration           1         603         591

:FULLRMS/Atom   2.5182021154
:PLANE:  PW TOTAL      7.1767 DISTAN   7.34E-02 %  1.02E+00
:CHARG:  CLM/ATOM     44.0356 DISTAN   8.90E-01 %  2.02E+00

Step History
        Dmix         Dmixt        Red     Pred      Step      Lambda    MagAbs    Beta
  1   3.5000E-02   3.5000E-02 -1.00E+00  1.00E+00 -1.00E+01  1.00E+00  2.53E-01  1.00E+00
  2   1.0000E-02   1.0000E-02 -1.00E+00  1.00E+00 -1.00E+01  1.00E+00  2.53E-01  1.00E+00
:INFO :  Number of Memory Steps    1 Skipping    0

:PREDicted Charge, CTotal, PW Trust   2.18E-01   3.48E-01   1.00E-01
:PREDicted DMix, Beta, BLim           2.02E-01   1.00E+00   2.02E-01

Eigenvalues, unscaled except for SY+YY with Slambda=   1.00000 Ylambda=   1.00000
   #     SY Real       SY Imag         SS            YY        SY+YY Real     SY+YY Imag
   1   2.65670E-01   0.00000E+00   1.71143E-01   7.34330E-01   1.00000E+00   0.00000E+00

:TRUST: Step 1.60E-01 Charge 3.80E-01 (e) CTO  7.39E-01 (e) PW  4.27E-01 (e)
:DTRUS:  Lambda   1.768E+00 Increment   1.155E-14 Iterations    53 DMIX   7.285E-02
:INFOA:  Angle SubSpace to MSR1      0.00
:DIRM :  MEMORY  1/8  RED  0.98 PRED  1.00 NEXT  0.83
:INFO :  Limited by Atoms F by Step T

:DIRP :  |MSR1|= 2.474E-01 |PRATT|= 7.338E-02 ANGLE=  66.7 DEGREES
:DIRQ :  |MSR1|= 1.113E+00 |PRATT|= 7.122E+00 ANGLE=  12.1 DEGREES
:DIRT :  |MSR1|= 1.140E+00 |PRATT|= 7.123E+00 ANGLE=  17.2 DEGREES
 Reducing nkk, now          591
:MIX  :   MSD1   REGULARIZATION:  2.00E-04 GREED: 0.20163  LMStep 0.36  0.1601 Step           
     
       CHARGES OF MIXED CHARGE DENSITY
:CTO   : INTERSTITIAL CHARGE =     9.242325
:CPC   : INTERSTITIAL CHARGE =    29.116471
:CTO001: CHARGE SPHERE  1    =    19.884465
:CTO002: CHARGE SPHERE  2    =    19.884467
:CTO003: CHARGE SPHERE  3    =    20.027384
:CTO004: CHARGE SPHERE  4    =    19.884465
:CTO005: CHARGE SPHERE  5    =     6.769045
:CTO006: CHARGE SPHERE  6    =     6.769283
:CTO007: CHARGE SPHERE  7    =     6.769283
:CTO008: CHARGE SPHERE  8    =     6.769284

:NEC03: NUCLEAR AND ELECTRONIC CHARGE    116.00000   116.00000

PW CHANGE     H    K    L      Current       Change    Residue
:PTO001:      0    0    0  7.45053930E-02  1.637E-03  7.551E-04
:PTO002:     -1    0    0 -2.67017034E-04 -2.670E-04 -1.108E-04
:PTO003:      0   -1    0  2.67024216E-04  2.670E-04  1.108E-04
:PTO004:      0    0   -1 -2.67017741E-04 -2.670E-04 -1.108E-04
:PTO005:     -1   -1    0 -3.28841201E-04 -3.288E-04 -1.365E-04
:PTO006:     -1    0   -1  3.28828007E-04  3.288E-04  1.365E-04
:PTO007:      0   -1   -1 -3.28821279E-04 -3.288E-04 -1.365E-04
:PTO008:     -1   -1   -1 -1.71322356E-02  1.894E-03  3.870E-04
:PTO009:     -2    0    0  3.93550682E-02  1.472E-03 -1.044E-04
:PTO010:      0   -2    0  3.93550680E-02  1.472E-03 -1.044E-04
:PTO011:      0    0   -2  3.93562338E-02  1.472E-03 -1.043E-04
:PTO012:     -2   -1    0 -4.61336607E-05 -4.613E-05 -1.915E-05

:ENE  : *WARNING** TOTAL ENERGY IN Ry =        -7237.38987392

 Euler-Maclaurian Coulomb
 Consistent 3/8+Simpson combinations at start/end
 New Mode for Coulomb Integral
 Extension of core to zero
 LDM version in phi
 Fifth-order quadrature in outwin
 Lebedev-Laikov Grid in lapw0


            ---------
:ITE011: 11. ITERATION
            ---------

:NATO :    8 INDEPENDENT AND    8 TOTAL ATOMS IN UNITCELL
       SUBSTANCE: blebleble                                                   

       LATTICE                      = P   
:POT  : POTENTIAL OPTION EX_PBE EC_PBE VX_PBE VC_PBE
:LAT  : LATTICE CONSTANTS=  8.01479  8.01479  8.01479    1.571    1.571    1.571
:VOL  : UNIT CELL VOLUME =     514.84590
       MODE OF CALCULATION IS       = RELA
       NON-SPINPOLARIZED CALCULATION
:IFFT  : FFT-parameters:   64   64   64 Factor: 2.00


   CONVERGENCE PARAMETER FOR PSEUDOCHARGE: NCON=  9
   MAXIMAL VALUE OF RMT(JATOM)*ABSK(NKK) : RK  =25.66310


:VKCOUL :  VK-COUL convergence: 0.626E-08
 Lebedev grid of          350
 Lebedev grid of          350
 Lebedev grid of          350
 Lebedev grid of          350
 Lebedev grid of          350
 Lebedev grid of          350
 Lebedev grid of          350
 Lebedev grid of          350
:VCOUL001 ATOMNUMBER=  1 Ti1     VCOUL-ZERO =  0.44204E+00
:EFG001:                        EFG         =    -0.29895   *10**21  V / m**2
                               V20  TOT/SRF=     0.12628    -0.01090
                               V22  TOT/SRF=     0.22604    -0.01893
                               V22M TOT/SRF=     0.00000     0.00000
                               V21  TOT/SRF=     0.00000     0.00000
                               V21M TOT/SRF=     0.00000     0.00000

              0.15313    0.00000    0.00000        0.15313    0.00000    0.00000
              0.00000   -0.29895    0.00000        0.00000   -0.29895    0.00000
              0.00000    0.00000    0.14582        0.00000    0.00000    0.14582

         MAIN DIRECTIONS OF THE EFG   1.0000 -0.0000 -0.0000
                                      0.0000  1.0000  0.0000
                                      0.0000  0.0000  1.0000
:ANG001:  ANGLE WITH OLD X-AXIS =         0.0

:ETA001:                         ASYMM. ETA =     0.02448


:VCOUL002 ATOMNUMBER=  2 Ti2     VCOUL-ZERO =  0.44204E+00
:EFG002:                        EFG         =    -0.30628   *10**21  V / m**2
                               V20  TOT/SRF=    -0.26525     0.02190
                               V22  TOT/SRF=    -0.00000    -0.00000
                               V22M TOT/SRF=     0.00000     0.00000
                               V21  TOT/SRF=     0.00000     0.00000
                               V21M TOT/SRF=     0.00000     0.00000

              0.15314    0.00000    0.00000        0.15314    0.00000    0.00000
              0.00000    0.15314    0.00000        0.00000    0.15314    0.00000
              0.00000    0.00000   -0.30628        0.00000    0.00000   -0.30628

         MAIN DIRECTIONS OF THE EFG   1.0000  0.0000 -0.0000
                                      0.0000  1.0000 -0.0000
                                      0.0000  0.0000  1.0000
:ANG002:  ANGLE WITH OLD X-AXIS =         0.0

:ETA002:                         ASYMM. ETA =     0.00000


:VCOUL003 ATOMNUMBER=  3 Ti3     VCOUL-ZERO =  0.50519E+00
:EFG003:                        EFG         =    -0.00486   *10**21  V / m**2
                               V20  TOT/SRF=    -0.00421     0.00003
                               V22  TOT/SRF=    -0.00000     0.00000
                               V22M TOT/SRF=     0.00000     0.00000
                               V21  TOT/SRF=     0.00000     0.00000
                               V21M TOT/SRF=     0.00000     0.00000

              0.00243    0.00000    0.00000        0.00243    0.00000    0.00000
              0.00000    0.00243    0.00000        0.00000    0.00243    0.00000
              0.00000    0.00000   -0.00486        0.00000    0.00000   -0.00486

         MAIN DIRECTIONS OF THE EFG   1.0000  0.0000 -0.0000
                                      0.0000  1.0000 -0.0000
                                      0.0000  0.0000  1.0000
:ANG003:  ANGLE WITH OLD X-AXIS =         0.0

:ETA003:                         ASYMM. ETA =     0.00015


:VCOUL004 ATOMNUMBER=  4 Ti4     VCOUL-ZERO =  0.44204E+00
:EFG004:                        EFG         =    -0.29895   *10**21  V / m**2
                               V20  TOT/SRF=     0.12628    -0.01090
                               V22  TOT/SRF=    -0.22604     0.01893
                               V22M TOT/SRF=     0.00000     0.00000
                               V21  TOT/SRF=     0.00000     0.00000
                               V21M TOT/SRF=     0.00000     0.00000

             -0.29895    0.00000    0.00000       -0.29895    0.00000    0.00000
              0.00000    0.15313    0.00000        0.00000    0.15313    0.00000
              0.00000    0.00000    0.14582        0.00000    0.00000    0.14582

         MAIN DIRECTIONS OF THE EFG   1.0000  0.0000  0.0000
                                      0.0000  1.0000 -0.0000
                                      0.0000  0.0000  1.0000
:ANG004:  ANGLE WITH OLD X-AXIS =         0.0

:ETA004:                         ASYMM. ETA =     0.02448


:VCOUL005 ATOMNUMBER=  5 N 5     VCOUL-ZERO =  0.64357E+00
:EFG005:                        EFG         =     0.00015   *10**21  V / m**2
                               V20  TOT/SRF=     0.00013     0.00005
                               V22  TOT/SRF=     0.00000    -0.00000
                               V22M TOT/SRF=     0.00000     0.00000
                               V21  TOT/SRF=     0.00000     0.00000
                               V21M TOT/SRF=     0.00000     0.00000

             -0.00008    0.00000    0.00000       -0.00008    0.00000    0.00000
              0.00000   -0.00008    0.00000        0.00000   -0.00008    0.00000
              0.00000    0.00000    0.00015        0.00000    0.00000    0.00015

         MAIN DIRECTIONS OF THE EFG   1.0000 -0.0000  0.0000
                                      0.0000  1.0000  0.0000
                                      0.0000  0.0000  1.0000
:ANG005:  ANGLE WITH OLD X-AXIS =         0.0

:ETA005:                         ASYMM. ETA =     0.00146


:VCOUL006 ATOMNUMBER=  6 N 6     VCOUL-ZERO =  0.67298E+00
:EFG006:                        EFG         =     0.20000   *10**21  V / m**2
                               V20  TOT/SRF=    -0.08649     0.04135
                               V22  TOT/SRF=     0.15006    -0.07152
                               V22M TOT/SRF=     0.00000     0.00000
                               V21  TOT/SRF=     0.00000     0.00000
                               V21M TOT/SRF=     0.00000     0.00000

              0.20000    0.00000    0.00000        0.20000    0.00000    0.00000
              0.00000   -0.10013    0.00000        0.00000   -0.10013    0.00000
              0.00000    0.00000   -0.09987        0.00000    0.00000   -0.09987

         MAIN DIRECTIONS OF THE EFG   1.0000 -0.0000 -0.0000
                                      0.0000  1.0000  0.0000
                                      0.0000  0.0000  1.0000
:ANG006:  ANGLE WITH OLD X-AXIS =         0.0

:ETA006:                         ASYMM. ETA =     0.00127


:VCOUL007 ATOMNUMBER=  7 N 7     VCOUL-ZERO =  0.67298E+00
:EFG007:                        EFG         =     0.20000   *10**21  V / m**2
                               V20  TOT/SRF=    -0.08649     0.04135
                               V22  TOT/SRF=    -0.15006     0.07152
                               V22M TOT/SRF=     0.00000     0.00000
                               V21  TOT/SRF=     0.00000     0.00000
                               V21M TOT/SRF=     0.00000     0.00000

             -0.10013    0.00000    0.00000       -0.10013    0.00000    0.00000
              0.00000    0.20000    0.00000        0.00000    0.20000    0.00000
              0.00000    0.00000   -0.09987        0.00000    0.00000   -0.09987

         MAIN DIRECTIONS OF THE EFG   1.0000  0.0000  0.0000
                                      0.0000  1.0000 -0.0000
                                      0.0000  0.0000  1.0000
:ANG007:  ANGLE WITH OLD X-AXIS =         0.0

:ETA007:                         ASYMM. ETA =     0.00128


:VCOUL008 ATOMNUMBER=  8 N 8     VCOUL-ZERO =  0.67298E+00
:EFG008:                        EFG         =     0.20022   *10**21  V / m**2
                               V20  TOT/SRF=     0.17339    -0.08253
                               V22  TOT/SRF=    -0.00000     0.00000
                               V22M TOT/SRF=     0.00000     0.00000
                               V21  TOT/SRF=     0.00000     0.00000
                               V21M TOT/SRF=     0.00000     0.00000

             -0.10011    0.00000    0.00000       -0.10011    0.00000    0.00000
              0.00000   -0.10011    0.00000        0.00000   -0.10011    0.00000
              0.00000    0.00000    0.20022        0.00000    0.00000    0.20022

         MAIN DIRECTIONS OF THE EFG   1.0000  0.0000  0.0000
                                      0.0000  1.0000  0.0000
                                      0.0000  0.0000  1.0000
:ANG008:  ANGLE WITH OLD X-AXIS =         0.0

:ETA008:                         ASYMM. ETA =     0.00000


:FIT001: LUSE= 13 SIGMA OF V-XC FIT FOR ATOM  1  0.1909514E-01
:FIT001: LUSE= 13 SIGMA OF V-XC FIT FOR ATOM  1  0.1909514E-01
:FIT002: LUSE= 13 SIGMA OF V-XC FIT FOR ATOM  2  0.1909420E-01
:FIT002: LUSE= 13 SIGMA OF V-XC FIT FOR ATOM  2  0.1909420E-01
:FIT003: LUSE= 13 SIGMA OF V-XC FIT FOR ATOM  3  0.1759215E-01
:FIT003: LUSE= 13 SIGMA OF V-XC FIT FOR ATOM  3  0.1759215E-01
:FIT004: LUSE= 13 SIGMA OF V-XC FIT FOR ATOM  4  0.1909514E-01
:FIT004: LUSE= 13 SIGMA OF V-XC FIT FOR ATOM  4  0.1909514E-01
:FIT005: LUSE= 13 SIGMA OF V-XC FIT FOR ATOM  5  0.8633219E-03
:FIT005: LUSE= 13 SIGMA OF V-XC FIT FOR ATOM  5  0.8633219E-03
:FIT006: LUSE= 13 SIGMA OF V-XC FIT FOR ATOM  6  0.8655791E-03
:FIT006: LUSE= 13 SIGMA OF V-XC FIT FOR ATOM  6  0.8655791E-03
:FIT007: LUSE= 13 SIGMA OF V-XC FIT FOR ATOM  7  0.8655791E-03
:FIT007: LUSE= 13 SIGMA OF V-XC FIT FOR ATOM  7  0.8655791E-03
:FIT008: LUSE= 13 SIGMA OF V-XC FIT FOR ATOM  8  0.8659731E-03
:FIT008: LUSE= 13 SIGMA OF V-XC FIT FOR ATOM  8  0.8659731E-03
:DEN  : DENSITY INTEGRAL  =         -3078.47379047   (Ry)
       ELS_POTENTIAL_AT Z=0 and Z=0.5:  -1.01638  -0.97421
       ELS_POTENTIAL_AT Y=0 and Y=0.5:  -0.97422  -1.01638
:VZERO:v0,v0c,v0x  -2.05165  -1.01638  -1.03527 v5,v5c,v5x  -2.01058  -0.97421  -1.03637
:VZERY:v0,v0c,v0x  -2.01058  -0.97422  -1.03636 v5,v5c,v5x  -2.05165  -1.01638  -1.03527
:VZERX:v0,v0c,v0x  -2.05165  -1.01638  -1.03527 v5,v5c,v5x  -2.01058  -0.97422  -1.03636
:LMAX-WF:   10   Non-Spherical LMAX:   4

          ATOMIC SPHERE DEPENDENT PARAMETERS FOR ATOM  Ti1       
:e__0001: OVERALL ENERGY PARAMETER IS    0.6675
          OVERALL BASIS SET ON ATOM IS LAPW
:E0_0001: E( 0)=    0.6675
             APW+lo
:E0_0001: E( 0)=   -3.4634   E(BOTTOM)=   -3.647   E(TOP)=   -3.280  2  3   181
             LOCAL ORBITAL
:E1_0001: E( 1)=    0.6675
             APW+lo
:E1_0001: E( 1)=   -1.7320   E(BOTTOM)=   -2.038   E(TOP)=   -1.426  1  2   183
             LOCAL ORBITAL
:E2_0001: E( 2)=    0.9056   E(BOTTOM)=    0.336   E(TOP)=    1.475  0  1   164
             APW+lo

          ATOMIC SPHERE DEPENDENT PARAMETERS FOR ATOM  Ti2       
:e__0002: OVERALL ENERGY PARAMETER IS    0.6675
          OVERALL BASIS SET ON ATOM IS LAPW
:E0_0002: E( 0)=    0.6675
             APW+lo
:E0_0002: E( 0)=   -3.4634   E(BOTTOM)=   -3.647   E(TOP)=   -3.280  2  3   186
             LOCAL ORBITAL
:E1_0002: E( 1)=    0.6675
             APW+lo
:E1_0002: E( 1)=   -1.7320   E(BOTTOM)=   -2.038   E(TOP)=   -1.426  1  2   182
             LOCAL ORBITAL
:E2_0002: E( 2)=    0.9056   E(BOTTOM)=    0.336   E(TOP)=    1.475  0  1   163
             APW+lo

          ATOMIC SPHERE DEPENDENT PARAMETERS FOR ATOM  Ti3       
:e__0003: OVERALL ENERGY PARAMETER IS    0.6675
          OVERALL BASIS SET ON ATOM IS LAPW
:E0_0003: E( 0)=    0.6675
             APW+lo
:E0_0003: E( 0)=   -3.4254   E(BOTTOM)=   -3.605   E(TOP)=   -3.246  2  3   190
             LOCAL ORBITAL
:E1_0003: E( 1)=    0.6675
             APW+lo
:E1_0003: E( 1)=   -1.6920   E(BOTTOM)=   -1.990   E(TOP)=   -1.394  1  2   188
             LOCAL ORBITAL
:E2_0003: E( 2)=    0.9592   E(BOTTOM)=    0.400   E(TOP)=    1.518  0  1   153
             APW+lo

          ATOMIC SPHERE DEPENDENT PARAMETERS FOR ATOM  Ti4       
:e__0004: OVERALL ENERGY PARAMETER IS    0.6675
          OVERALL BASIS SET ON ATOM IS LAPW
:E0_0004: E( 0)=    0.6675
             APW+lo
:E0_0004: E( 0)=   -3.4634   E(BOTTOM)=   -3.647   E(TOP)=   -3.280  2  3   182
             LOCAL ORBITAL
:E1_0004: E( 1)=    0.6675
             APW+lo
:E1_0004: E( 1)=   -1.7320   E(BOTTOM)=   -2.038   E(TOP)=   -1.426  1  2   183
             LOCAL ORBITAL
:E2_0004: E( 2)=    0.9056   E(BOTTOM)=    0.336   E(TOP)=    1.475  0  1   162
             APW+lo

          ATOMIC SPHERE DEPENDENT PARAMETERS FOR ATOM  N 5       
:e__0005: OVERALL ENERGY PARAMETER IS    0.6675
          OVERALL BASIS SET ON ATOM IS LAPW
:E0_0005: E( 0)=    1.0675
             APW+lo
:E0_0005: E( 0)=   -0.1562   E(BOTTOM)=   -1.243   E(TOP)=    0.930  1  2   204
             LOCAL ORBITAL
:E1_0005: E( 1)=    0.6675
             APW+lo

          ATOMIC SPHERE DEPENDENT PARAMETERS FOR ATOM  N 6       
:e__0006: OVERALL ENERGY PARAMETER IS    0.6675
          OVERALL BASIS SET ON ATOM IS LAPW
:E0_0006: E( 0)=    1.0675
             APW+lo
:E0_0006: E( 0)=   -0.1270   E(BOTTOM)=   -1.213   E(TOP)=    0.959  1  2   212
             LOCAL ORBITAL
:E1_0006: E( 1)=    0.6675
             APW+lo

          ATOMIC SPHERE DEPENDENT PARAMETERS FOR ATOM  N 7       
:e__0007: OVERALL ENERGY PARAMETER IS    0.6675
          OVERALL BASIS SET ON ATOM IS LAPW
:E0_0007: E( 0)=    1.0675
             APW+lo
:E0_0007: E( 0)=   -0.1270   E(BOTTOM)=   -1.213   E(TOP)=    0.959  1  2   211
             LOCAL ORBITAL
:E1_0007: E( 1)=    0.6675
             APW+lo

          ATOMIC SPHERE DEPENDENT PARAMETERS FOR ATOM  N 8       
:e__0008: OVERALL ENERGY PARAMETER IS    0.6675
          OVERALL BASIS SET ON ATOM IS LAPW
:E0_0008: E( 0)=    1.0675
             APW+lo
:E0_0008: E( 0)=   -0.1270   E(BOTTOM)=   -1.213   E(TOP)=    0.959  1  2   211
             LOCAL ORBITAL
:E1_0008: E( 1)=    0.6675
             APW+lo

       K=  0.000000  0.000000  0.000000            1
:RKM  : MATRIX SIZE   533LOs:  72  RKM= 6.77  WEIGHT= 1.00  PGR:    
       EIGENVALUES ARE:
:EIG00001:      -3.4315044   -3.4241847   -3.4241844   -3.3890814   -1.7003444
:EIG00006:      -1.7003443   -1.7003432   -1.6808813   -1.6808811   -1.6808786
:EIG00011:      -1.6729976   -1.6729975   -1.6729973   -1.6404731   -1.6404449
:EIG00016:      -1.6404448   -0.4056989   -0.3111613   -0.2914916   -0.2914914
:EIG00021:       0.4229623    0.4229623    0.4229719    0.6116899    0.6116899
:EIG00026:       0.6117068    0.6188702    0.6188702    0.6188883    0.6209589
:EIG00031:       0.6209590    0.6209618    0.7053402    0.7053402    0.7053616
:EIG00036:       0.7979271    0.7979271    0.7979304    0.8799859    0.8800060
:EIG00041:       0.9469469    0.9662811    0.9662893    0.9989107    0.9989108
:EIG00046:       0.9989121    1.0284668    1.0284669    1.0284694    1.0893998

:EIG00051:       1.1130217    1.1130381    1.2522724    1.6260237    1.6260356
:EIG00056:       1.6475584    1.7227133    1.7227133    1.7227179    1.8291353
:EIG00061:       1.9067101    1.9067101    1.9067117    2.2540596    2.2540597
:EIG00066:       2.2540597    2.2567523    2.2567541    2.2567541    2.3133258
:EIG00071:       2.3133258    2.3133298
       ********************************************************

:KPT   :      NUMBER OF K-POINTS:   216


       TEMP.-SMEARING WITH    0.00190 Ry 
          -S / Kb           =  -0.46747449
          -(T*S)            =  -0.00088820
          Chem Pot          =   0.86192714
         Bandranges (emin - emax) and occupancy:
:BAN00028:  28    0.445455    0.618870  2.00000000
:BAN00029:  29    0.445473    0.618888  2.00000000
:BAN00030:  30    0.445473    0.648458  2.00000000
:BAN00031:  31    0.470940    0.663527  2.00000000
:BAN00032:  32    0.470950    0.673890  2.00000000
:BAN00033:  33    0.650444    0.949324  1.54068424
:BAN00034:  34    0.677696    0.949328  1.39540911
:BAN00035:  35    0.690783    0.949328  0.94600472
:BAN00036:  36    0.777270    0.955123  0.72750810
:BAN00037:  37    0.797927    0.955125  0.24191639
:BAN00038:  38    0.797930    0.971365  0.14847675
:BAN00039:  39    0.879986    0.978252  0.00000054
:BAN00040:  40    0.880006    0.990000  0.00000015
:BAN00041:  41    0.946947    1.009010  0.00000000
:BAN00042:  42    0.956420    1.026728  0.00000000
:BAN00043:  43    0.966289    1.026731  0.00000000
        Energy to separate low and high energystates:    0.20506


:NOE  : NUMBER OF ELECTRONS          =   69.000

:FER  : F E R M I - ENERGY(FERMI-SM.)=   0.8619271424
:GMA  : POTENTIAL AND CHARGE CUT-OFF  12.00 Ry**.5

:POS001: ATOM   -1 X,Y,Z = 0.00000 0.00000 0.00000  MULT= 1  ZZ= 22.000  Ti1       

       LMMAX 10
       LM=   0 0  2 0  2 2  4 0  4 2  4 4  6 0  6 2  6 4  6 6

[...]
          OVERALL BASIS SET ON ATOM IS LAPW
:E0_0006: E( 0)=    1.0264
             APW+lo
:E0_0006: E( 0)=   -0.1528   E(BOTTOM)=   -1.237   E(TOP)=    0.931  1  2   208
             LOCAL ORBITAL
:E1_0006: E( 1)=    0.6264
             APW+lo

          ATOMIC SPHERE DEPENDENT PARAMETERS FOR ATOM  N 7       
:e__0007: OVERALL ENERGY PARAMETER IS    0.6264
          OVERALL BASIS SET ON ATOM IS LAPW
:E0_0007: E( 0)=    1.0264
             APW+lo
:E0_0007: E( 0)=   -0.1528   E(BOTTOM)=   -1.237   E(TOP)=    0.931  1  2   208
             LOCAL ORBITAL
:E1_0007: E( 1)=    0.6264
             APW+lo

          ATOMIC SPHERE DEPENDENT PARAMETERS FOR ATOM  N 8       
:e__0008: OVERALL ENERGY PARAMETER IS    0.6264
          OVERALL BASIS SET ON ATOM IS LAPW
:E0_0008: E( 0)=    1.0264
             APW+lo
:E0_0008: E( 0)=   -0.1528   E(BOTTOM)=   -1.237   E(TOP)=    0.931  1  2   208
             LOCAL ORBITAL
:E1_0008: E( 1)=    0.6264
             APW+lo

       K=  0.000000  0.000000  0.000000            1
:RKM  : MATRIX SIZE   533LOs:  72  RKM= 6.77  WEIGHT= 1.00  PGR:    
       EIGENVALUES ARE:
:EIG00001:      -3.6256117   -3.4239133   -3.4169433   -3.4168776   -1.8644729
:EIG00006:      -1.8643560   -1.8643558   -1.6918258   -1.6918245   -1.6918056
:EIG00011:      -1.6760474   -1.6760104   -1.6760066   -1.6646104   -1.6646078
:EIG00016:      -1.6645745   -0.4235652   -0.3220323   -0.3144878   -0.3144609
:EIG00021:       0.4022634    0.4022634    0.4022715    0.5922785    0.5922788
:EIG00026:       0.5922839    0.5980223    0.5980226    0.5980518    0.5993963
:EIG00031:       0.5993964    0.5993982    0.6842964    0.6842965    0.6843170
:EIG00036:       0.7670837    0.7670939    0.7670947    0.8362175    0.8363308
:EIG00041:       0.9193359    0.9193498    0.9479817    0.9539148    0.9539190
:EIG00046:       0.9539672    1.0031663    1.0032066    1.0032102    1.0634036

:EIG00051:       1.0634658    1.0934707    1.2343440    1.6022486    1.6163822
:EIG00056:       1.6164165    1.7051746    1.7051746    1.7051782    1.8192505
:EIG00061:       1.8721195    1.8721198    1.8721242    2.2292709    2.2292737
:EIG00066:       2.2292742    2.2416646    2.2416672    2.2416677    2.2834699
:EIG00071:       2.2834702    2.2834711
       ********************************************************

:KPT   :      NUMBER OF K-POINTS:   216


       TEMP.-SMEARING WITH    0.00190 Ry 
          -S / Kb           =  -0.62627939
          -(T*S)            =  -0.00118993
          Chem Pot          =   0.82588910
         Bandranges (emin - emax) and occupancy:
:BAN00028:  28    0.428388    0.598023  2.00000000
:BAN00029:  29    0.428436    0.598052  2.00000000
:BAN00030:  30    0.430346    0.626158  2.00000000
:BAN00031:  31    0.430348    0.640826  2.00000000
:BAN00032:  32    0.430361    0.651342  2.00000000
:BAN00033:  33    0.628108    0.877905  1.65731919
:BAN00034:  34    0.658130    0.877912  1.40492491
:BAN00035:  35    0.669680    0.882012  0.88422908
:BAN00036:  36    0.747895    0.944434  0.72911592
:BAN00037:  37    0.767094    0.944465  0.21906100
:BAN00038:  38    0.767095    0.952009  0.10530695
:BAN00039:  39    0.836217    0.952044  0.00003477
:BAN00040:  40    0.836331    0.956023  0.00000818
:BAN00041:  41    0.919336    0.991217  0.00000000
:BAN00042:  42    0.919350    0.991242  0.00000000
:BAN00043:  43    0.947982    0.991387  0.00000000
        Energy to separate low and high energystates:    0.19088


:NOE  : NUMBER OF ELECTRONS          =   69.000

:FER  : F E R M I - ENERGY(FERMI-SM.)=   0.8258891005
:GMA  : POTENTIAL AND CHARGE CUT-OFF  12.00 Ry**.5

:POS001: ATOM   -1 X,Y,Z = 0.00000 0.00000 0.00000  MULT= 1  ZZ= 22.000  Ti1       

       LMMAX 10
       LM=   0 0  2 0  2 2  4 0  4 2  4 4  6 0  6 2  6 4  6 6

:CHA001: TOTAL VALENCE CHARGE INSIDE SPHERE   1 =   9.9060    (RMT=  2.1400 )
:PCS001: PARTIAL CHARGES SPHERE =  1 S,P,D,F,PX,PY,PZ,D-Z2,D-X2Y2,D-XY,D-XZ,D-YZ 
:QTL001: 2.1110 6.0561 1.6909 0.0402 2.0186 2.0189 2.0186 0.3523 0.3518 0.3406 0.3055 0.3407
        Q-s-low E-s-low   Q-p-low E-p-low   Q-d-low E-d-low   Q-f-low E-f-low
:EPL001:  2.0125 -3.3658    5.8650 -1.6622    0.0666 -0.2982    0.0060 -0.3118
        Q-s-hi  E-s-hi    Q-p-hi  E-p-hi    Q-d-hi  E-d-hi    Q-f-hi  E-f-hi 
:EPH001:  0.0985  0.3637    0.1911  0.4514    1.6243  0.5636    0.0342  0.5510

                      VXX         VYY         VZZ       UP TO R
:VZZ001:             0.17395    -0.33987     0.16591       2.140

:POS002: ATOM   -2 X,Y,Z = 0.00000 0.50000 0.50000  MULT= 1  ZZ= 22.000  Ti2       

       LMMAX 10
       LM=   0 0  2 0  2 2  4 0  4 2  4 4  6 0  6 2  6 4  6 6

:CHA002: TOTAL VALENCE CHARGE INSIDE SPHERE   2 =   9.9053    (RMT=  2.1400 )
:PCS002: PARTIAL CHARGES SPHERE =  2 S,P,D,F,PX,PY,PZ,D-Z2,D-X2Y2,D-XY,D-XZ,D-YZ 
:QTL002: 2.1110 6.0561 1.6902 0.0402 2.0186 2.0186 2.0189 0.3515 0.3525 0.3053 0.3405 0.3405
        Q-s-low E-s-low   Q-p-low E-p-low   Q-d-low E-d-low   Q-f-low E-f-low
:EPL002:  2.0125 -3.3657    5.8650 -1.6621    0.0666 -0.2982    0.0060 -0.3118
        Q-s-hi  E-s-hi    Q-p-hi  E-p-hi    Q-d-hi  E-d-hi    Q-f-hi  E-f-hi 
:EPH002:  0.0985  0.3637    0.1911  0.4514    1.6236  0.5636    0.0342  0.5510

                      VXX         VYY         VZZ       UP TO R
:VZZ002:             0.17303     0.17311    -0.34614       2.140

:POS003: ATOM   -3 X,Y,Z = 0.50000 0.00000 0.50000  MULT= 1  ZZ= 22.000  Ti3       

       LMMAX 10
       LM=   0 0  2 0  2 2  4 0  4 2  4 4  6 0  6 2  6 4  6 6

:CHA003: TOTAL VALENCE CHARGE INSIDE SPHERE   3 =  11.1047    (RMT=  2.1400 )
:PCS003: PARTIAL CHARGES SPHERE =  3 S,P,D,F,PX,PY,PZ,D-Z2,D-X2Y2,D-XY,D-XZ,D-YZ 
:QTL003: 2.1174 6.0911 2.8504 0.0383 2.0304 2.0304 2.0304 0.4252 0.4250 0.6668 0.6667 0.6667
        Q-s-low E-s-low   Q-p-low E-p-low   Q-d-low E-d-low   Q-f-low E-f-low
:EPL003:  2.0170 -3.5692    5.9081 -1.8485    0.0664 -0.2954    0.0058 -0.3101
        Q-s-hi  E-s-hi    Q-p-hi  E-p-hi    Q-d-hi  E-d-hi    Q-f-hi  E-f-hi 
:EPH003:  0.1004  0.3648    0.1830  0.4481    2.7840  0.6258    0.0325  0.5527

                      VXX         VYY         VZZ       UP TO R
:VZZ003:             0.00411     0.00407    -0.00818       2.140

:POS004: ATOM   -4 X,Y,Z = 0.50000 0.50000 0.00000  MULT= 1  ZZ= 22.000  Ti4       

       LMMAX 10
       LM=   0 0  2 0  2 2  4 0  4 2  4 4  6 0  6 2  6 4  6 6

:CHA004: TOTAL VALENCE CHARGE INSIDE SPHERE   4 =   9.9059    (RMT=  2.1400 )
:PCS004: PARTIAL CHARGES SPHERE =  4 S,P,D,F,PX,PY,PZ,D-Z2,D-X2Y2,D-XY,D-XZ,D-YZ 
:QTL004: 2.1110 6.0561 1.6908 0.0402 2.0189 2.0186 2.0186 0.3523 0.3518 0.3406 0.3406 0.3055
        Q-s-low E-s-low   Q-p-low E-p-low   Q-d-low E-d-low   Q-f-low E-f-low
:EPL004:  2.0125 -3.3658    5.8650 -1.6622    0.0666 -0.2982    0.0060 -0.3118
        Q-s-hi  E-s-hi    Q-p-hi  E-p-hi    Q-d-hi  E-d-hi    Q-f-hi  E-f-hi 
:EPH004:  0.0985  0.3637    0.1911  0.4514    1.6242  0.5636    0.0342  0.5510

                      VXX         VYY         VZZ       UP TO R
:VZZ004:            -0.33981     0.17397     0.16584       2.140

:POS005: ATOM   -5 X,Y,Z = 0.00000 0.50000 0.00000  MULT= 1  ZZ=  7.000  N 5       

       LMMAX 10
       LM=   0 0  2 0  2 2  4 0  4 2  4 4  6 0  6 2  6 4  6 6

:CHA005: TOTAL VALENCE CHARGE INSIDE SPHERE   5 =   4.7727    (RMT=  1.8400 )
:PCS005: PARTIAL CHARGES SPHERE =  5 S,P,D,F,PX,PY,PZ,D-Z2,D-X2Y2,D-XY,D-XZ,D-YZ 
:QTL005: 1.5253 3.1929 0.0457 0.0067 1.0643 1.0643 1.0643 0.0052 0.0052 0.0117 0.0117 0.0117
        Q-s-low E-s-low   Q-p-low E-p-low   Q-d-low E-d-low   Q-f-low E-f-low
:EPL005:  1.4990 -0.3191    0.0222 -1.5509    0.0071 -1.7771    0.0026 -1.8066
        Q-s-hi  E-s-hi    Q-p-hi  E-p-hi    Q-d-hi  E-d-hi    Q-f-hi  E-f-hi 
:EPH005:  0.0262  0.4296    3.1708  0.4605    0.0386  0.6406    0.0041  0.5480

                      VXX         VYY         VZZ       UP TO R
:VZZ005:             0.00010     0.00016    -0.00027       1.840

:POS006: ATOM   -6 X,Y,Z = 0.00000 0.00000 0.50000  MULT= 1  ZZ=  7.000  N 6       

       LMMAX 10
       LM=   0 0  2 0  2 2  4 0  4 2  4 4  6 0  6 2  6 4  6 6

:CHA006: TOTAL VALENCE CHARGE INSIDE SPHERE   6 =   4.7458    (RMT=  1.8400 )
:PCS006: PARTIAL CHARGES SPHERE =  6 S,P,D,F,PX,PY,PZ,D-Z2,D-X2Y2,D-XY,D-XZ,D-YZ 
:QTL006: 1.5254 3.1648 0.0463 0.0071 1.0321 1.0663 1.0663 0.0052 0.0050 0.0123 0.0123 0.0115
        Q-s-low E-s-low   Q-p-low E-p-low   Q-d-low E-d-low   Q-f-low E-f-low
:EPL006:  1.4979 -0.3115    0.0200 -1.5776    0.0065 -1.8247    0.0024 -1.8564
        Q-s-hi  E-s-hi    Q-p-hi  E-p-hi    Q-d-hi  E-d-hi    Q-f-hi  E-f-hi 
:EPH006:  0.0275  0.4461    3.1448  0.4677    0.0398  0.6404    0.0047  0.5782

                      VXX         VYY         VZZ       UP TO R
:VZZ006:             1.13718    -0.56924    -0.56795       1.840

:POS007: ATOM   -7 X,Y,Z = 0.50000 0.50000 0.50000  MULT= 1  ZZ=  7.000  N 7       

       LMMAX 10
       LM=   0 0  2 0  2 2  4 0  4 2  4 4  6 0  6 2  6 4  6 6

:CHA007: TOTAL VALENCE CHARGE INSIDE SPHERE   7 =   4.7458    (RMT=  1.8400 )
:PCS007: PARTIAL CHARGES SPHERE =  7 S,P,D,F,PX,PY,PZ,D-Z2,D-X2Y2,D-XY,D-XZ,D-YZ 
:QTL007: 1.5254 3.1648 0.0463 0.0071 1.0663 1.0321 1.0663 0.0052 0.0050 0.0123 0.0115 0.0123
        Q-s-low E-s-low   Q-p-low E-p-low   Q-d-low E-d-low   Q-f-low E-f-low
:EPL007:  1.4979 -0.3115    0.0200 -1.5776    0.0065 -1.8247    0.0024 -1.8564
        Q-s-hi  E-s-hi    Q-p-hi  E-p-hi    Q-d-hi  E-d-hi    Q-f-hi  E-f-hi 
:EPH007:  0.0275  0.4461    3.1448  0.4677    0.0398  0.6404    0.0047  0.5782

                      VXX         VYY         VZZ       UP TO R
:VZZ007:            -0.56923     1.13720    -0.56797       1.840

:POS008: ATOM   -8 X,Y,Z = 0.50000 0.00000 0.00000  MULT= 1  ZZ=  7.000  N 8       

       LMMAX 10
       LM=   0 0  2 0  2 2  4 0  4 2  4 4  6 0  6 2  6 4  6 6

:CHA008: TOTAL VALENCE CHARGE INSIDE SPHERE   8 =   4.7458    (RMT=  1.8400 )
:PCS008: PARTIAL CHARGES SPHERE =  8 S,P,D,F,PX,PY,PZ,D-Z2,D-X2Y2,D-XY,D-XZ,D-YZ 
:QTL008: 1.5254 3.1648 0.0463 0.0071 1.0664 1.0664 1.0321 0.0049 0.0053 0.0115 0.0123 0.0123
        Q-s-low E-s-low   Q-p-low E-p-low   Q-d-low E-d-low   Q-f-low E-f-low
:EPL008:  1.4979 -0.3116    0.0200 -1.5777    0.0065 -1.8247    0.0024 -1.8565
        Q-s-hi  E-s-hi    Q-p-hi  E-p-hi    Q-d-hi  E-d-hi    Q-f-hi  E-f-hi 
:EPH008:  0.0275  0.4461    3.1448  0.4677    0.0398  0.6404    0.0047  0.5782

                      VXX         VYY         VZZ       UP TO R
:VZZ008:            -0.56959    -0.56962     1.13921       1.840

:CHA  : TOTAL VALENCE CHARGE INSIDE UNIT CELL =      69.000000

:SUM  : SUM OF EIGENVALUES =         -57.065638044


        1.ATOM      Ti1                   4 CORE STATES
:1S 001: 1S                -356.609146217 Ry
:2S 001: 2S                 -38.293592755 Ry
:2PP001: 2P*                -31.762718754 Ry
:2P 001: 2P                 -31.338586697 Ry

        2.ATOM      Ti2                   4 CORE STATES
:1S 002: 1S                -356.608991899 Ry
:2S 002: 2S                 -38.293447104 Ry
:2PP002: 2P*                -31.762571463 Ry
:2P 002: 2P                 -31.338439535 Ry

        3.ATOM      Ti3                   4 CORE STATES
:1S 003: 1S                -360.785820346 Ry
:2S 003: 2S                 -40.463724073 Ry
:2PP003: 2P*                -34.259970409 Ry
:2P 003: 2P                 -33.815505844 Ry

        4.ATOM      Ti4                   4 CORE STATES
:1S 004: 1S                -356.609134177 Ry
:2S 004: 2S                 -38.293581293 Ry
:2PP004: 2P*                -31.762707188 Ry
:2P 004: 2P                 -31.338575140 Ry

        5.ATOM      N 5                   1 CORE STATES
:1S 005: 1S                 -26.908157458 Ry

        6.ATOM      N 6                   1 CORE STATES
:1S 006: 1S                 -26.910273111 Ry

        7.ATOM      N 7                   1 CORE STATES
:1S 007: 1S                 -26.910270827 Ry

        8.ATOM      N 8                   1 CORE STATES
:1S 008: 1S                 -26.910320785 Ry
:CINT001 Core Integral Atom   1    9.99999999
:CINT002 Core Integral Atom   2    9.99999999
:CINT003 Core Integral Atom   3    9.00000000
:CINT004 Core Integral Atom   4    9.99999999
:CINT005 Core Integral Atom   5    1.99999987
:CINT006 Core Integral Atom   6    1.99999987
:CINT007 Core Integral Atom   7    1.99999987
:CINT008 Core Integral Atom   8    1.99999987

       DENSITY AT NUCLEUS
        JATOM        VALENCE       SEMI-CORE          CORE           TOTAL
:RTO001:   1       97.424060        0.000000     8474.013129     8571.437189
:RTO002:   2       97.423337        0.000000     8474.012922     8571.436259
:RTO003:   3      104.332495        0.000000     8504.398048     8608.730543
:RTO004:   4       97.424002        0.000000     8474.013115     8571.437118
:RTO005:   5        8.909141        0.000000      200.430028      209.339169
:RTO006:   6        8.931693        0.000000      200.433389      209.365082
:RTO007:   7        8.931691        0.000000      200.433388      209.365080
:RTO008:   8        8.931754        0.000000      200.433363      209.365117
     
       CHARGES OF NEW CHARGE DENSITY
:NTO   : INTERSTITIAL CHARGE =     9.168004
:NPC   : INTERSTITIAL CHARGE =    27.985839
:NTO001: CHARGE SPHERE  1    =    19.905964
:NTO002: CHARGE SPHERE  2    =    19.905284
:NTO003: CHARGE SPHERE  3    =    20.104727
:NTO004: CHARGE SPHERE  4    =    19.905910
:NTO005: CHARGE SPHERE  5    =     6.772680
:NTO006: CHARGE SPHERE  6    =     6.745790
:NTO007: CHARGE SPHERE  7    =     6.745786
:NTO008: CHARGE SPHERE  8    =     6.745815

:NEC01: NUCLEAR AND ELECTRONIC CHARGE    116.00000   115.99996
     
       CHARGES OF OLD CHARGE DENSITY
:OTO   : INTERSTITIAL CHARGE =     9.167502
:OPC   : INTERSTITIAL CHARGE =    27.980680
:OTO001: CHARGE SPHERE  1    =    19.904742
:OTO002: CHARGE SPHERE  2    =    19.904834
:OTO003: CHARGE SPHERE  3    =    20.108942
:OTO004: CHARGE SPHERE  4    =    19.904750
:OTO005: CHARGE SPHERE  5    =     6.772109
:OTO006: CHARGE SPHERE  6    =     6.745715
:OTO007: CHARGE SPHERE  7    =     6.745715
:OTO008: CHARGE SPHERE  8    =     6.745691

:NEC02: NUCLEAR AND ELECTRONIC CHARGE    116.00000   116.00000
     
       CONVERGENCE TEST
:DTO001: DIFFERENCE IN SPHERE  1 =  0.0011731
:DTO002: DIFFERENCE IN SPHERE  2 =  0.0005245
:DTO003: DIFFERENCE IN SPHERE  3 =  0.0060143
:DTO004: DIFFERENCE IN SPHERE  4 =  0.0011216
:DTO005: DIFFERENCE IN SPHERE  5 =  0.0005481
:DTO006: DIFFERENCE IN SPHERE  6 =  0.0003442
:DTO007: DIFFERENCE IN SPHERE  7 =  0.0003417
:DTO008: DIFFERENCE IN SPHERE  8 =  0.0003768

:DIS  :  CHARGE DISTANCE       ( 0.0060143 for atom    3 spin 1)      0.0013056
 
******************************************************
* MULTISECANT MIXING VER9 RELEASE 10.8.2             *
* Standard Mode with step bound                      *
* Multisecant MSR1 Algorithm                         *
* Regularization       2.000E-04                     *
* Minimum Greed        1.000E-03                     *
* Max Number of Memory Steps    8                    *
******************************************************
 
 :WARNING:  Number of PWs changed, you may want to restart broyden after iteration          11         603         591

:FULLRMS/Atom   0.0023463640
:PLANE:  PW TOTAL      7.0904 DISTAN   1.71E-03 %  2.42E-02
:CHARG:  CLM/ATOM     43.9190 DISTAN   8.01E-04 %  1.82E-03

Step History
        Dmix         Dmixt        Red     Pred      Step      Lambda    MagAbs    Beta
  4   2.4649E-01   1.1861E-01  5.78E-01  5.74E-01  3.35E-01  1.22E+00  1.94E+00  1.00E+00
  5   1.5730E-01   1.5366E-01  3.96E-01  4.94E-01  6.05E-01  1.51E+00  2.03E+00  9.57E-01
  6   2.1516E-01   2.1516E-01  1.24E+00  8.06E-01  9.91E-01  1.33E+00  1.31E+00  1.00E+00
  7   1.4089E-01   1.4089E-01  2.42E-01  4.27E-01  4.68E-01  1.46E+00  7.70E-01  6.00E-01
  8   2.3227E-01   2.3227E-01  5.19E-01  3.48E-01  1.36E+00  1.37E+00  5.43E-01  7.79E-01
  9   1.5391E-01   1.5391E-01  4.66E-01  4.01E-01  1.67E+00  1.37E+00  3.45E-01  7.53E-01
 10   2.0749E-01   2.0749E-01  1.53E-01  2.19E-01  2.18E+00  1.36E+00  2.10E-01  9.84E-01
 11   3.4582E-01   3.4582E-01  1.21E+00  7.79E-01  8.11E+00  1.39E+00  1.20E-01  9.83E-01
 12   2.3118E-01   2.3118E-01 -1.00E+00  4.35E-01  4.95E+00  1.50E+00  8.86E-02  5.90E-01
:INFO :  Number of Memory Steps    8 Skipping    3

:PREDicted Charge, CTotal, PW Trust   2.66E-03   7.45E-03   3.70E-03
:PREDicted DMix, Beta, BLim           2.40E-01   1.07E+00   6.26E-01

Eigenvalues, unscaled except for SY+YY with Slambda=   1.58462 Ylambda=   1.00000
   #     SY Real       SY Imag         SS            YY        SY+YY Real     SY+YY Imag
   1   1.13708E+00   0.00000E+00   1.15588E+00   2.44683E+00   3.22324E+00   0.00000E+00
   2   5.34250E-01   0.00000E+00   3.78520E-01   1.13781E+00   2.84770E+00   0.00000E+00
   3   3.00062E-01   0.00000E+00   2.09048E-01   5.32444E-01   1.07488E+00   0.00000E+00
   4   1.98754E-01   0.00000E+00   8.50033E-02   2.98973E-01   6.65186E-01   0.00000E+00
   5   2.20514E-02   0.00000E+00   2.58926E-03   9.89748E-02   1.77825E-01   0.00000E+00
   6   1.75913E-05   0.00000E+00   6.99074E-04   4.65330E-03   6.18130E-03   0.00000E+00
   7   1.24516E-03   0.00000E+00   1.81544E-04   2.95183E-03   4.86999E-03   0.00000E+00
   8   9.40598E-04   0.00000E+00   3.90475E-06   8.14524E-05   1.10810E-04   0.00000E+00

:INFO :  Singular value  3.231E+00 Weight  1.000E+00 Projection -3.377E-03
:INFO :  Singular value  2.850E+00 Weight  1.000E+00 Projection -2.440E-03
:INFO :  Singular value  1.074E+00 Weight  1.000E+00 Projection -2.533E-03
:INFO :  Singular value  6.649E-01 Weight  1.000E+00 Projection  9.926E-04
:INFO :  Singular value  1.775E-01 Weight  1.000E+00 Projection  1.961E-03
:INFO :  Singular value  6.192E-03 Weight  9.892E-01 Projection  8.870E-03
:INFO :  Singular value  4.860E-03 Weight  9.826E-01 Projection  2.398E-02
:INFO :  Singular value  1.108E-04 Weight  2.856E-02 Projection  1.050E-03
:RANK :  ACTIVE   7.00/8  =  87.50 % ; YY RANK   6.95/8  =  86.89 %
:DLIM :  Beta Active  9.500E-01
:TRUST: Step 8.12E+00 Charge 6.52E-02 (e) CTO  1.09E-01 (e) PW  2.91E-01 (e)
:DIRM :  MEMORY  8/8  RED  0.37 PRED  0.43 NEXT  0.31 BETA  0.95
:DIRP :  |MSR1|= 1.262E-03 |PRATT|= 1.714E-03 ANGLE=  27.3 DEGREES
:DIRQ :  |MSR1|= 2.938E-03 |PRATT|= 6.411E-03 ANGLE=  45.0 DEGREES
:DIRT :  |MSR1|= 3.198E-03 |PRATT|= 6.637E-03 ANGLE=  44.1 DEGREES
 Reducing nkk, now          591
:MIX  :   MSE1   REGULARIZATION:  6.46E-04 GREED: 0.24505  Newton 1.00  0.4818                
     
       CHARGES OF MIXED CHARGE DENSITY
:CTO   : INTERSTITIAL CHARGE =     9.167491
:CPC   : INTERSTITIAL CHARGE =    27.984175
:CTO001: CHARGE SPHERE  1    =    19.904893
:CTO002: CHARGE SPHERE  2    =    19.904600
:CTO003: CHARGE SPHERE  3    =    20.109015
:CTO004: CHARGE SPHERE  4    =    19.904870
:CTO005: CHARGE SPHERE  5    =     6.772219
:CTO006: CHARGE SPHERE  6    =     6.745638
:CTO007: CHARGE SPHERE  7    =     6.745636
:CTO008: CHARGE SPHERE  8    =     6.745638

:NEC03: NUCLEAR AND ELECTRONIC CHARGE    116.00000   116.00000

PW CHANGE     H    K    L      Current       Change    Residue
:PTO001:      0    0    0  7.21607492E-02  6.766E-06  1.131E-05
:PTO002:     -1    0    0  4.95563973E-04 -1.510E-06  3.390E-06
:PTO003:      0   -1    0 -4.95507389E-04  1.585E-06 -3.240E-06
:PTO004:      0    0   -1  4.96084093E-04 -6.345E-07  5.150E-06
:PTO005:     -1   -1    0  6.83955420E-04 -2.989E-06  1.829E-06
:PTO006:     -1    0   -1 -6.83075951E-04  3.864E-06 -7.654E-08
:PTO007:      0   -1   -1  6.83128325E-04 -3.795E-06  2.155E-07
:PTO008:     -1   -1   -1 -2.04236859E-02  3.407E-06  1.093E-06
:PTO009:     -2    0    0  3.72741619E-02  5.865E-06  8.080E-06
:PTO010:      0   -2    0  3.72741623E-02  5.866E-06  8.081E-06
:PTO011:      0    0   -2  3.72754792E-02  5.858E-06  8.066E-06
:PTO012:     -2   -1    0 -7.02221736E-04 -2.592E-06 -3.529E-06

:ENE  : *WARNING** TOTAL ENERGY IN Ry =        -7236.20221144

